
                                 *****************
                                 * O   R   C   A *
                                 *****************

           --- An Ab Initio, DFT and Semiempirical electronic structure package ---

                  #######################################################
                  #                        -***-                        #
                  #          Department of theory and spectroscopy      #
                  #               Directorship: Frank Neese             #
                  #        Max Planck Institute fuer Kohlenforschung    #
                  #                Kaiser Wilhelm Platz 1               #
                  #                 D-45470 Muelheim/Ruhr               #
                  #                      Germany                        #
                  #                                                     #
                  #                  All rights reserved                #
                  #                        -***-                        #
                  #######################################################


                         Program Version 4.2.1 -  RELEASE  -


 With contributions from (in alphabetic order):
   Daniel Aravena         : Magnetic Suceptibility
   Michael Atanasov       : Ab Initio Ligand Field Theory (pilot matlab implementation)
   Alexander A. Auer      : GIAO ZORA, VPT2
   Ute Becker             : Parallelization
   Giovanni Bistoni       : ED, misc. LED, open-shell LED, HFLD
   Martin Brehm           : Molecular dynamics
   Dmytro Bykov           : SCF Hessian
   Vijay G. Chilkuri      : MRCI spin determinant printing, contributions to CSF-ICE
   Dipayan Datta          : RHF DLPNO-CCSD density
   Achintya Kumar Dutta   : EOM-CC, STEOM-CC
   Dmitry Ganyushin       : Spin-Orbit,Spin-Spin,Magnetic field MRCI
   Miquel Garcia          : C-PCM Hessian, Gaussian charge scheme
   Yang Guo               : DLPNO-NEVPT2, CIM, IAO-localization
   Andreas Hansen         : Spin unrestricted coupled pair/coupled cluster methods
   Benjamin Helmich-Paris : CASSCF linear response (MC-RPA)
   Lee Huntington         : MR-EOM, pCC
   Robert Izsak           : Overlap fitted RIJCOSX, COSX-SCS-MP3, EOM
   Christian Kollmar      : KDIIS, OOCD, Brueckner-CCSD(T), CCSD density
   Simone Kossmann        : Meta GGA functionals, TD-DFT gradient, OOMP2, MP2 Hessian
   Martin Krupicka        : AUTO-CI
   Lucas Lang             : DCDCAS
   Dagmar Lenk            : GEPOL surface, SMD
   Dimitrios Liakos       : Extrapolation schemes; Compound Job, initial MDCI parallelization
   Dimitrios Manganas     : Further ROCIS development; embedding schemes
   Dimitrios Pantazis     : SARC Basis sets
   Taras Petrenko         : DFT Hessian,TD-DFT gradient, ASA, ECA, R-Raman, ABS, FL, XAS/XES, NRVS
   Peter Pinski           : DLPNO-MP2, DLPNO-MP2 Gradient
   Christoph Reimann      : Effective Core Potentials
   Marius Retegan         : Local ZFS, SOC
   Christoph Riplinger    : Optimizer, TS searches, QM/MM, DLPNO-CCSD(T), (RO)-DLPNO pert. Triples
   Tobias Risthaus        : Range-separated hybrids, TD-DFT gradient, RPA, STAB
   Michael Roemelt        : Original ROCIS implementation
   Masaaki Saitow         : Open-shell DLPNO-CCSD energy and density
   Barbara Sandhoefer     : DKH picture change effects
   Avijit Sen             : IP-ROCIS
   Kantharuban Sivalingam : CASSCF convergence, NEVPT2, FIC-MRCI
   Bernardo de Souza      : ESD, SOC TD-DFT
   Georgi Stoychev        : AutoAux, RI-MP2 NMR
   Willem Van den Heuvel  : Paramagnetic NMR
   Boris Wezisla          : Elementary symmetry handling
   Frank Wennmohs         : Technical directorship


 We gratefully acknowledge several colleagues who have allowed us to
 interface, adapt or use parts of their codes:
   Stefan Grimme, W. Hujo, H. Kruse,             : VdW corrections, initial TS optimization,
                  C. Bannwarth                     DFT functionals, gCP, sTDA/sTD-DF
   Ed Valeev, F. Pavosevic, A. Kumar             : LibInt (2-el integral package), F12 methods
   Garnet Chan, S. Sharma, J. Yang, R. Olivares  : DMRG
   Ulf Ekstrom                                   : XCFun DFT Library
   Mihaly Kallay                                 : mrcc  (arbitrary order and MRCC methods)
   Andreas Klamt, Michael Diedenhofen            : otool_cosmo (COSMO solvation model)
   Jiri Pittner, Ondrej Demel                    : Mk-CCSD
   Frank Weinhold                                : gennbo (NPA and NBO analysis)
   Christopher J. Cramer and Donald G. Truhlar   : smd solvation model
   Lars Goerigk                                  : TD-DFT with DH, B97 family of functionals
   V. Asgeirsson, H. Jonsson                     : NEB implementation
   FAccTs GmbH                                   : IRC, NEB, NEB-TS, Multilevel, MM, QM/MM, CI optimization
   S Lehtola, MJT Oliveira, MAL Marques          : LibXC Library


 Your calculation uses the libint2 library for the computation of 2-el integrals
 For citations please refer to: http://libint.valeyev.net

 Your ORCA version has been built with support for libXC version: 4.2.3
 For citations please refer to: https://tddft.org/programs/libxc/

 This ORCA versions uses:
   CBLAS   interface :  Fast vector & matrix operations
   LAPACKE interface :  Fast linear algebra routines
   SCALAPACK package :  Parallel linear algebra routines


----- Orbital basis set information -----
Your calculation utilizes the basis: 6-311G**
   H, Li - Ne  : R. Krishnan, J. S. Binkley, R. Seeger and J. A. Pople, J. Chem. Phys. 72, 650 (1980).
   Na - Ar     : A. D. McLean and G. S. Chandler J. Chem. Phys. 72, 5639, (1980).
   K  - Ca     : J.-P. Blaudeau, M. P. McGrath, L. A. Curtiss and L. Radom, J. Chem. Phys. 107, 5016 (1997).
   Ga - Kr     : L. A. Curtiss, M. P. McGrath, J.-P. Blandeau, N. E. Davis, R. C. Binning and L. Radom, J. Chem. Phys. 103, 6104 (1995).
   Pol./Diff.
   H, Li - Cl  : T. Clark, J. Chandrasekhar and P. v. R. Schleyer, J. Comp. Chem. 4, 294 (1983).
   H - Ne      : M. J. Frisch, J. A. Pople and J. S. Binkley, J. Chem. Phys. 80, 3265 (1984).

================================================================================
                                        WARNINGS
                       Please study these warnings very carefully!
================================================================================


WARNING: MDCI localization with Augmented Hessian Foster-Boys
  ===> : Switching off randomization!

WARNING: Post HF methods need fully converged wavefunctions
  ===> : Setting SCFConvForced true
         You can overwrite this default with %scf ConvForced false 


INFO   : the flag for use of LIBINT has been found!

================================================================================
                                       INPUT FILE
================================================================================
NAME = orca.inp
|  1> !QCISD(T) 6-311G** ENERGY
|  2> 
|  3> %paras
|  4> 	R = 0.4, 2.0, 33 # x-axis of H1
|  5> end
|  6> 
|  7> *xyz 0 1
|  8> H    0.0000000    0.0000000    0.0000000
|  9> H    {R}                0.0000000    0.0000000
| 10> **                         ****END OF INPUT****
================================================================================

                       ******************************
                       * Parameter Scan Calculation *
                       ******************************

Trajectory settings:
    -> SCF surface will be mapped
    -> MDCI surface will be mapped

There are 1 parameter(s) to be scanned
             R: range=   0.40000000 ..   2.00000000  steps=   33
There will be   33 energy evaluations


         *************************************************************
                                TRAJECTORY STEP   1
                  R  :   0.40000000
         *************************************************************
---------------------------------
CARTESIAN COORDINATES (ANGSTROEM)
---------------------------------
  H      0.000000    0.000000    0.000000
  H      0.400000    0.000000    0.000000

----------------------------
CARTESIAN COORDINATES (A.U.)
----------------------------
  NO LB      ZA    FRAG     MASS         X           Y           Z
   0 H     1.0000    0     1.008    0.000000    0.000000    0.000000
   1 H     1.0000    0     1.008    0.755890    0.000000    0.000000

--------------------------------
INTERNAL COORDINATES (ANGSTROEM)
--------------------------------
 H      0   0   0     0.000000000000     0.00000000     0.00000000
 H      1   0   0     0.400000000000     0.00000000     0.00000000

---------------------------
INTERNAL COORDINATES (A.U.)
---------------------------
 H      0   0   0     0.000000000000     0.00000000     0.00000000
 H      1   0   0     0.755890453569     0.00000000     0.00000000

---------------------
BASIS SET INFORMATION
---------------------
There are 1 groups of distinct atoms

 Group   1 Type H   : 5s1p contracted to 3s1p pattern {311/1}

Atom   0H    basis set group =>   1
Atom   1H    basis set group =>   1
------------------------------------------------------------------------------
                           ORCA GTO INTEGRAL CALCULATION
------------------------------------------------------------------------------

                         BASIS SET STATISTICS AND STARTUP INFO

 # of primitive gaussian shells          ...   12
 # of primitive gaussian functions       ...   16
 # of contracted shells                  ...    8
 # of contracted basis functions         ...   12
 Highest angular momentum                ...    1
 Maximum contraction depth               ...    3
 Integral package used                   ... LIBINT
 Integral threshhold            Thresh   ...  1.000e-10
 Primitive cut-off              TCut     ...  1.000e-11


------------------------------ INTEGRAL EVALUATION ----------------------------


 * One electron integrals 
 Pre-screening matrix                    ... done
 Shell pair data                         ... done (   0.000 sec)

-------------------------------------------------------------------------------
                                 ORCA SCF
-------------------------------------------------------------------------------

------------
SCF SETTINGS
------------
Hamiltonian:
 Ab initio Hamiltonian  Method          .... Hartree-Fock(GTOs)


General Settings:
 Integral files         IntName         .... orca
 Hartree-Fock type      HFTyp           .... RHF
 Total Charge           Charge          ....    0
 Multiplicity           Mult            ....    1
 Number of Electrons    NEL             ....    2
 Basis Dimension        Dim             ....   12
 Nuclear Repulsion      ENuc            ....      1.3229430208 Eh

Convergence Acceleration:
 DIIS                   CNVDIIS         .... on
   Start iteration      DIISMaxIt       ....    12
   Startup error        DIISStart       ....  0.200000
   # of expansion vecs  DIISMaxEq       ....     5
   Bias factor          DIISBfac        ....   1.050
   Max. coefficient     DIISMaxC        ....  10.000
 Newton-Raphson         CNVNR           .... off
 SOSCF                  CNVSOSCF        .... on
   Start iteration      SOSCFMaxIt      ....   150
   Startup grad/error   SOSCFStart      ....  0.003300
 Level Shifting         CNVShift        .... on
   Level shift para.    LevelShift      ....    0.2500
   Turn off err/grad.   ShiftErr        ....    0.0010
 Zerner damping         CNVZerner       .... off
 Static damping         CNVDamp         .... on
   Fraction old density DampFac         ....    0.7000
   Max. Damping (<1)    DampMax         ....    0.9800
   Min. Damping (>=0)   DampMin         ....    0.0000
   Turn off err/grad.   DampErr         ....    0.1000
 Fernandez-Rico         CNVRico         .... off

SCF Procedure:
 Maximum # iterations   MaxIter         ....   125
 SCF integral mode      SCFMode         .... Direct
   Integral package                     .... LIBINT
 Reset frequency        DirectResetFreq ....    20
 Integral Threshold     Thresh          ....  1.000e-10 Eh
 Primitive CutOff       TCut            ....  1.000e-11 Eh

Convergence Tolerance:
 Convergence Check Mode ConvCheckMode   .... Total+1el-Energy
 Convergence forced     ConvForced      .... 1
 Energy Change          TolE            ....  1.000e-06 Eh
 1-El. energy change                    ....  1.000e-03 Eh
 Orbital Gradient       TolG            ....  5.000e-05
 Orbital Rotation angle TolX            ....  5.000e-05
 DIIS Error             TolErr          ....  1.000e-06


Diagonalization of the overlap matrix:
Smallest eigenvalue                        ... 5.004e-03
Time for diagonalization                   ...    0.678 sec
Threshold for overlap eigenvalues          ... 1.000e-08
Number of eigenvalues below threshold      ... 0
Time for construction of square roots      ...    0.000 sec
Total time needed                          ...    0.678 sec

-------------------
DFT GRID GENERATION
-------------------

General Integration Accuracy     IntAcc      ...  4.340
Radial Grid Type                 RadialGrid  ... Gauss-Chebyshev
Angular Grid (max. acc.)         AngularGrid ... Lebedev-110
Angular grid pruning method      GridPruning ... 3 (G Style)
Weight generation scheme         WeightScheme... Becke
Basis function cutoff            BFCut       ...    1.0000e-10
Integration weight cutoff        WCut        ...    1.0000e-14
Grids for H and He will be reduced by one unit

# of grid points (after initial pruning)     ...   1588 (   0.0 sec)
# of grid points (after weights+screening)   ...   1558 (   0.0 sec)
nearest neighbour list constructed           ...    0.0 sec
Grid point re-assignment to atoms done       ...    0.0 sec
Grid point division into batches done        ...    0.0 sec
Reduced shell lists constructed in    0.0 sec

Total number of grid points                  ...     1558
Total number of batches                      ...       26
Average number of points per batch           ...       59
Average number of grid points per atom       ...      779
Average number of shells per batch           ...     7.70 (96.30%)
Average number of basis functions per batch  ...    11.56 (96.30%)
Average number of large shells per batch     ...     7.63 (99.04%)
Average number of large basis fcns per batch ...    11.48 (99.36%)
Maximum spatial batch extension              ...  15.26, 21.59, 21.59 au
Average spatial batch extension              ...   4.39,  8.19,  8.26 au

Time for grid setup =    0.007 sec

------------------------------
INITIAL GUESS: MODEL POTENTIAL
------------------------------
Loading Hartree-Fock densities                     ... done
Calculating cut-offs                               ... done
Setting up the integral package                    ... done
Initializing the effective Hamiltonian             ... done
Starting the Coulomb interaction                   ... done (   0.0 sec)
Reading the grid                                   ... done
Mapping shells                                     ... done
Starting the XC term evaluation                    ... done (   0.0 sec)
Transforming the Hamiltonian                       ... done (   0.0 sec)
Diagonalizing the Hamiltonian                      ... done (   0.0 sec)
Back transforming the eigenvectors                 ... done (   0.0 sec)
Now organizing SCF variables                       ... done
                      ------------------
                      INITIAL GUESS DONE (   0.1 sec)
                      ------------------
--------------
SCF ITERATIONS
--------------
ITER       Energy         Delta-E        Max-DP      RMS-DP      [F,P]     Damp
               ***  Starting incremental Fock matrix formation  ***
  0     -0.9280566862   0.000000000000 0.00810616  0.00137025  0.1199663 0.7000
  1     -0.9307085079  -0.002651821671 0.00658721  0.00112478  0.0931959 0.7000
                               ***Turning on DIIS***
  2     -0.9327446521  -0.002036144187 0.01622323  0.00280735  0.0698918 0.0000
  3     -0.9400698345  -0.007325182455 0.00159590  0.00042521  0.0102482 0.0000
                      *** Initiating the SOSCF procedure ***
                           *** Shutting down DIIS ***
                      *** Re-Reading the Fockian *** 
                      *** Removing any level shift *** 
ITER      Energy       Delta-E        Grad      Rot      Max-DP    RMS-DP
  4     -0.93847081   0.0015990233  0.001515  0.001515  0.000645  0.000149
               *** Restarting incremental Fock matrix formation ***
  5     -0.93807780   0.0003930153  0.000398  0.000396  0.000272  0.000057
                 **** Energy Check signals convergence ****
              ***Rediagonalizing the Fockian in SOSCF/NRSCF***

               *****************************************************
               *                     SUCCESS                       *
               *           SCF CONVERGED AFTER   6 CYCLES          *
               *****************************************************


----------------
TOTAL SCF ENERGY
----------------

Total Energy       :           -0.93807819 Eh             -25.52641 eV

Components:
Nuclear Repulsion  :            1.32294302 Eh              35.99911 eV
Electronic Energy  :           -2.26102122 Eh             -61.52552 eV
One Electron Energy:           -3.07039576 Eh             -83.54972 eV
Two Electron Energy:            0.80937455 Eh              22.02420 eV

Virial components:
Potential Energy   :           -2.57788984 Eh             -70.14795 eV
Kinetic Energy     :            1.63981165 Eh              44.62154 eV
Virial Ratio       :            1.57206460


---------------
SCF CONVERGENCE
---------------

  Last Energy change         ...   -3.9856e-07  Tolerance :   1.0000e-06
  Last MAX-Density change    ...    8.5625e-05  Tolerance :   1.0000e-05
  Last RMS-Density change    ...    1.7287e-05  Tolerance :   1.0000e-06
  Last Orbital Gradient      ...    8.8459e-05  Tolerance :   5.0000e-05
  Last Orbital Rotation      ...    1.1404e-04  Tolerance :   5.0000e-05

             **** THE GBW FILE WAS UPDATED (orca.gbw) ****
             **** DENSITY FILE WAS UPDATED (orca.scfp) ****
             **** ENERGY FILE WAS UPDATED (orca.en.tmp) ****
             **** THE GBW FILE WAS UPDATED (orca.gbw) ****
             **** DENSITY FILE WAS UPDATED (orca.scfp) ****
----------------
ORBITAL ENERGIES
----------------

  NO   OCC          E(Eh)            E(eV) 
   0   2.0000      -0.725794       -19.7499 
   1   0.0000       0.202408         5.5078 
   2   0.0000       0.279290         7.5999 
   3   0.0000       0.768059        20.8999 
   4   0.0000       1.402991        38.1773 
   5   0.0000       1.402991        38.1773 
   6   0.0000       1.865293        50.7572 
   7   0.0000       2.205882        60.0251 
   8   0.0000       2.330666        63.4206 
   9   0.0000       2.330666        63.4206 
  10   0.0000       2.667400        72.5836 
  11   0.0000       6.901533       187.8003 

                    ********************************
                    * MULLIKEN POPULATION ANALYSIS *
                    ********************************

-----------------------
MULLIKEN ATOMIC CHARGES
-----------------------
   0 H :   -0.000000
   1 H :    0.000000
Sum of atomic charges:   -0.0000000

--------------------------------
MULLIKEN REDUCED ORBITAL CHARGES
--------------------------------
  0 H s       :     0.993060  s :     0.993060
      pz      :    -0.000000  p :     0.006940
      px      :     0.006940
      py      :     0.000000
  1 H s       :     0.993060  s :     0.993060
      pz      :     0.000000  p :     0.006940
      px      :     0.006940
      py      :     0.000000


                     *******************************
                     * LOEWDIN POPULATION ANALYSIS *
                     *******************************

----------------------
LOEWDIN ATOMIC CHARGES
----------------------
   0 H :   -0.000000
   1 H :   -0.000000

-------------------------------
LOEWDIN REDUCED ORBITAL CHARGES
-------------------------------
  0 H s       :     0.977903  s :     0.977903
      pz      :     0.000000  p :     0.022097
      px      :     0.022097
      py      :     0.000000
  1 H s       :     0.977903  s :     0.977903
      pz      :     0.000000  p :     0.022097
      px      :     0.022097
      py      :     0.000000


                      *****************************
                      * MAYER POPULATION ANALYSIS *
                      *****************************

  NA   - Mulliken gross atomic population
  ZA   - Total nuclear charge
  QA   - Mulliken gross atomic charge
  VA   - Mayer's total valence
  BVA  - Mayer's bonded valence
  FA   - Mayer's free valence

  ATOM       NA         ZA         QA         VA         BVA        FA
  0 H      1.0000     1.0000    -0.0000     1.0000     1.0000    -0.0000
  1 H      1.0000     1.0000     0.0000     1.0000     1.0000    -0.0000

  Mayer bond orders larger than 0.100000
B(  0-H ,  1-H ) :   1.0000 

-------
TIMINGS
-------

Total SCF time: 0 days 0 hours 0 min 1 sec 

Total time                  ....       1.437 sec
Sum of individual times     ....       0.588 sec  ( 40.9%)

Fock matrix formation       ....       0.472 sec  ( 32.9%)
Diagonalization             ....       0.000 sec  (  0.0%)
Density matrix formation    ....       0.000 sec  (  0.0%)
Population analysis         ....       0.000 sec  (  0.0%)
Initial guess               ....       0.107 sec  (  7.5%)
Orbital Transformation      ....       0.000 sec  (  0.0%)
Orbital Orthonormalization  ....       0.000 sec  (  0.0%)
DIIS solution               ....       0.000 sec  (  0.0%)
SOSCF solution              ....       0.000 sec  (  0.0%)


------------------------------------------------------------------------------- 
                              ORCA-MATRIX DRIVEN CI                            
------------------------------------------------------------------------------- 

--------------------------------
AUTOMATIC CHOICE OF INCORE LEVEL
--------------------------------

Memory available                           ...    256.00 MB
Memory needed for S+T                      ...      0.00 MB
Memory needed for J+K                      ...      0.01 MB
Memory needed for DIIS                     ...      0.03 MB
Memory needed for 3-ext                    ...      0.01 MB
Memory needed for 4-ext                    ...      0.06 MB
Memory needed for triples                  ...      0.05 MB
 -> Final InCoreLevel    ... 5
 -> check shows that triples correction can be computed


Wavefunction type
-----------------
Correlation treatment                      ...     QCISD     
Single excitations                         ... ON
Orbital optimization                       ... OFF
Calculation of Z vector                    ... OFF
Calculation of Brueckner orbitals          ... OFF
Perturbative triple excitations            ... ON
Calculation of F12 correction              ... OFF
Frozen core treatment                      ... chemical core (0 el)
Reference Wavefunction                     ... RHF
  Internal Orbitals:     0 ...    0 (  1 MO's/  2 electrons)
  Virtual  Orbitals:     1 ...   11 ( 11 MO's              )
Number of AO's                             ...     12
Number of electrons                        ...      2
Number of correlated electrons             ...      2

Algorithmic settings
--------------------
Integral transformation                    ... AO direct full transformation
K(C) Formation                             ... FULL-MO TRAFO
Maximum number of iterations               ...        50
Convergence tolerance (max. residuum)      ... 2.500e-05
Level shift for amplitude update           ... 2.000e-01
Maximum number of DIIS vectors             ...         7
DIIS turned on at iteration                ...         0
Damping before turning on DIIS             ...     0.500
Damping after turning on DIIS              ...     0.000
Pair specific amplitude update             ... OFF
Natural orbital iterations                 ... OFF
Perturbative natural orbital generation    ... OFF
Printlevel                                 ... 2

Memory handling:
----------------
Maximum memory for working arrays          ...    256 MB
Data storage in matrix containers          ... UNCOMPRESSED
Data type for integral storage             ... DOUBLE
In-Core Storage of quantities:
   Amplitudes+Sigma Vector      ... YES
   J+K operators                ... YES
   DIIS vectors                 ... YES
   3-external integrals         ... YES
   4-external integrals         ... YES


Initializing the integral package          ... done
Warning: reference  - re-canonicalizations have been set to INT 1 VIRT 1

--------------------------
CLOSED-SHELL FOCK OPERATOR
--------------------------

<ss|ss>:          231 b            0 skpd (  0.0%)    0.000 s ( 0.000 ms/b)
<ss|sp>:          252 b            0 skpd (  0.0%)    0.000 s ( 0.001 ms/b)
<ss|pp>:           63 b            0 skpd (  0.0%)    0.000 s ( 0.001 ms/b)
<sp|sp>:           78 b            0 skpd (  0.0%)    0.000 s ( 0.001 ms/b)
<sp|pp>:           36 b            0 skpd (  0.0%)    0.000 s ( 0.001 ms/b)
<pp|pp>:            6 b            0 skpd (  0.0%)    0.000 s ( 0.003 ms/b)
Recanonicalizing the internal orbitals
Recanonicalizing the virtual orbitals
Time needed for Fock operator              ...            0.138 sec
Reference energy                           ...     -0.938078216

------------------------------
PARTIAL COULOMB TRANSFORMATION
------------------------------

Transformation type                        ... one-operator
Dimension of the basis                     ...   12
Number of internal MOs                     ...   12 (0-11)
Pair cutoff                                ... 0.000e+00 Eh
Number of AO pairs included in the trafo   ...   78
Total Number of distinct AO pairs          ...   78
Memory devoted for trafo                   ...  256.0 MB 
Max. Number of MO pairs treated together   ... 430185      
Max. Number of MOs treated per batch       ... 35848      
Number Format for Storage                  ... Double (8 Byte)
AO-integral source                         ... DIRECT
Integral package used                      ... LIBINT

Starting integral evaluation:
<ss|**>:          756 b        0 skpd     0.001 s (  0.001 ms/b)
<sp|**>:          432 b        0 skpd     0.000 s (  0.001 ms/b)
<pp|**>:          108 b        0 skpd     0.000 s (  0.002 ms/b)
Closing buffer AOJ ( 0.00 GB; CompressionRatio= 0.98)
Collecting buffer AOJ 
    ... done with AO integral generation
Number of MO pairs included in the trafo   ...   78
    ... Now sorting integrals
IBATCH = 1 of  1
Closing buffer JAO ( 0.00 GB; CompressionRatio= 0.98)
Collecting buffer JAO 
TOTAL TIME for half transformation         ...     0.002 sec
AO-integral generation                     ...     0.001 sec
Half transformation                        ...     0.001 sec
J-integral sorting                         ...     0.001 sec

-------------------------- SECOND HALF TRANSFORMATION -------------------------
Formation of (pq|rs)                       ... ok (     0.001 sec)
Integral sorting                           ... ok (     0.000 sec)

------------------
CLOSED SHELL GUESS
------------------

Initial guess performed in     0.000 sec
E(0)                                       ...     -0.938078216
E(MP2)                                     ...     -0.026770343
Initial E(tot)                             ...     -0.964848559
<T|T>                                      ...      0.006549100
Number of pairs included                   ... 1
Total number of pairs                      ... 1

---------------------------
RHF QUADRATIC CI ITERATIONS
---------------------------

Number of amplitudes to be optimized       ... 132

Iter       E(tot)           E(Corr)          Delta-E          Residual     Time
  0     -0.964848559     -0.026770343      0.000000000      0.027831850    0.00
                           *** Turning on DIIS ***
  1     -0.969769544     -0.031691328     -0.004920985      0.006686339    0.00
  2     -0.971467070     -0.033388854     -0.001697525      0.000771804    0.00
  3     -0.971542708     -0.033464491     -0.000075638      0.000173129    0.00
  4     -0.971548592     -0.033470376     -0.000005884      0.000034138    0.00
  5     -0.971549514     -0.033471297     -0.000000922      0.000008605    0.00
               --- The Quadratic CI iterations have converged ---

-------------------
QUADRATIC CI ENERGY
-------------------

E(0)                                       ...     -0.938078216
E(CORR)                                    ...     -0.033471297
E(TOT)                                     ...     -0.971549514
Singles Norm <S|S>**1/2                    ...      0.001668642  
T1 diagnostic                              ...      0.001179908  

------------------
LARGEST AMPLITUDES
------------------
   0->  4   0->  4       0.040642
   0->  5   0->  5       0.040642
   0->  2   0->  2       0.033919
   0->  3   0->  3       0.032840
   0->  6   0->  6       0.030340
   0->  6   0->  2       0.026202
   0->  2   0->  6       0.026202
   0->  7   0->  3       0.021301
   0->  3   0->  7       0.021301
   0->  7   0->  7       0.019559
   0->  1   0->  3       0.019080
   0->  3   0->  1       0.019080
   0->  1   0->  1       0.012353
   0->  7   0->  1       0.010345
   0->  1   0->  7       0.010345
   0-> 10   0-> 10       0.009202


        !!!!!!!!!!!!!!!!!!!!!!!!!!!!!!!!!!!!!!!!!!!!!!!!!!!!!!!!!!!!!!!!!!!!!!!!!! 
        !  Warning: Densities are linearized densities !                         !
        !!!!!!!!!!!!!!!!!!!!!!!!!!!!!!!!!!!!!!!!!!!!!!!!!!!!!!!!!!!!!!!!!!!!!!!!!! 

Trace of internal density part =     -0.021430666
Trace of external density part =      0.021430666
----------------------
RHF TRIPLES CORRECTION (Algorithm 1)
----------------------

Multiplier for the singles contribution    ...      2.000000000

Triples Correction (T)                     ...      0.000000000
Scaling of triples based on CCSD energies (Peterson et al. Molecular Physics 113, 1551 (2015))
E(T*) = f*E(T) where f = E(F12-CCSD)/E(CCSD) 
f = CCSD (with F12)/ CCSD (without F12)    ...      1.000000000
Scaled triples correction (T)              ...      0.000000000

Final correlation energy                   ...     -0.033471297
E(QCISD)                                   ...     -0.971549514
E(QCISD(T))                                ...     -0.971549514

NORM  =      1.010718117 sqrt=     1.005344775
W(HF) =      0.989395543
------------------------------------------------------------------------------
                           ORCA POPULATION ANALYSIS
------------------------------------------------------------------------------
Input electron density              ... orca.mdcip
BaseName (.gbw .S,...)              ... orca

                    ********************************
                    * MULLIKEN POPULATION ANALYSIS *
                    ********************************

-----------------------
MULLIKEN ATOMIC CHARGES
-----------------------
   0 H :    0.000000
   1 H :   -0.000000
Sum of atomic charges:   -0.0000000

--------------------------------
MULLIKEN REDUCED ORBITAL CHARGES
--------------------------------
  0 H s       :     0.989084  s :     0.989084
      pz      :     0.001705  p :     0.010916
      px      :     0.007506
      py      :     0.001705
  1 H s       :     0.989084  s :     0.989084
      pz      :     0.001705  p :     0.010916
      px      :     0.007506
      py      :     0.001705


                     *******************************
                     * LOEWDIN POPULATION ANALYSIS *
                     *******************************

----------------------
LOEWDIN ATOMIC CHARGES
----------------------
   0 H :   -0.000000
   1 H :   -0.000000

-------------------------------
LOEWDIN REDUCED ORBITAL CHARGES
-------------------------------
  0 H s       :     0.972227  s :     0.972227
      pz      :     0.001705  p :     0.027773
      px      :     0.024362
      py      :     0.001705
  1 H s       :     0.972227  s :     0.972227
      pz      :     0.001705  p :     0.027773
      px      :     0.024362
      py      :     0.001705


                      *****************************
                      * MAYER POPULATION ANALYSIS *
                      *****************************

  NA   - Mulliken gross atomic population
  ZA   - Total nuclear charge
  QA   - Mulliken gross atomic charge
  VA   - Mayer's total valence
  BVA  - Mayer's bonded valence
  FA   - Mayer's free valence

  ATOM       NA         ZA         QA         VA         BVA        FA
  0 H      1.0000     1.0000     0.0000     1.0173     0.9748     0.0426
  1 H      1.0000     1.0000    -0.0000     1.0173     0.9748     0.0426

  Mayer bond orders larger than 0.100000
B(  0-H ,  1-H ) :   0.9748 



------------------------------------------------------------------------------- 
                                     TIMINGS                                   
------------------------------------------------------------------------------- 


Total execution time                   ...        1.912 sec

Fock Matrix Formation                  ...        0.138 sec (  7.2%)
Initial Guess                          ...        0.000 sec (  0.0%)
DIIS Solver                            ...        0.000 sec (  0.0%)
State Vector Update                    ...        0.000 sec (  0.0%)
Sigma-vector construction              ...        0.001 sec (  0.1%)
Total Time for computing (T)           ...        0.000 sec (  0.0% of ALL)


-------------------------   --------------------
FINAL SINGLE POINT ENERGY        -0.971549513617
-------------------------   --------------------

Storing actual gbw-file in orca.001.gbw ... done

                            ***************************************
                            *     ORCA property calculations      *
                            ***************************************

                                    ---------------------
                                    Active property flags
                                    ---------------------
   (+) Dipole Moment


------------------------------------------------------------------------------
                       ORCA ELECTRIC PROPERTIES CALCULATION
------------------------------------------------------------------------------

Dipole Moment Calculation                       ... on
Quadrupole Moment Calculation                   ... off
Polarizability Calculation                      ... off
GBWName                                         ... orca.gbw
Electron density file                           ... orca.scfp
The origin for moment calculation is the CENTER OF MASS  = ( 0.377945,  0.000000  0.000000)

-------------
DIPOLE MOMENT
-------------
                                X             Y             Z
Electronic contribution:      0.00000      -0.00000      -0.00000
Nuclear contribution   :      0.00000       0.00000       0.00000
                        -----------------------------------------
Total Dipole Moment    :      0.00000      -0.00000      -0.00000
                        -----------------------------------------
Magnitude (a.u.)       :      0.00000
Magnitude (Debye)      :      0.00000



--------------------
Rotational spectrum 
--------------------
 
Rotational constants in cm-1:     0.000000   209.048176   209.048176 
Rotational constants in MHz :     0.000000 6267106.642963 6267106.642963 

 Dipole components along the rotational axes: 
x,y,z [a.u.] :     0.000000    -0.000000    -0.000000 
x,y,z [Debye]:     0.000000    -0.000000    -0.000000 

 

                           *** MDCI DENSITY ***

------------------------------------------------------------------------------
                       ORCA ELECTRIC PROPERTIES CALCULATION
------------------------------------------------------------------------------

Dipole Moment Calculation                       ... on
Quadrupole Moment Calculation                   ... off
Polarizability Calculation                      ... off
GBWName                                         ... orca.gbw
Electron density file                           ... orca.mdcip
The origin for moment calculation is the CENTER OF MASS  = ( 0.377945,  0.000000  0.000000)

-------------
DIPOLE MOMENT
-------------
                                X             Y             Z
Electronic contribution:      0.00000      -0.00000      -0.00000
Nuclear contribution   :      0.00000       0.00000       0.00000
                        -----------------------------------------
Total Dipole Moment    :      0.00000      -0.00000      -0.00000
                        -----------------------------------------
Magnitude (a.u.)       :      0.00000
Magnitude (Debye)      :      0.00000



--------------------
Rotational spectrum 
--------------------
 
Rotational constants in cm-1:     0.000000   209.048176   209.048176 
Rotational constants in MHz :     0.000000 6267106.642963 6267106.642963 

 Dipole components along the rotational axes: 
x,y,z [a.u.] :     0.000000    -0.000000    -0.000000 
x,y,z [Debye]:     0.000000    -0.000000    -0.000000 

 

         *************************************************************
                                TRAJECTORY STEP   2
                  R  :   0.45000000
         *************************************************************
---------------------------------
CARTESIAN COORDINATES (ANGSTROEM)
---------------------------------
  H      0.000000    0.000000    0.000000
  H      0.450000    0.000000    0.000000

----------------------------
CARTESIAN COORDINATES (A.U.)
----------------------------
  NO LB      ZA    FRAG     MASS         X           Y           Z
   0 H     1.0000    0     1.008    0.000000    0.000000    0.000000
   1 H     1.0000    0     1.008    0.850377    0.000000    0.000000

--------------------------------
INTERNAL COORDINATES (ANGSTROEM)
--------------------------------
 H      0   0   0     0.000000000000     0.00000000     0.00000000
 H      1   0   0     0.450000000000     0.00000000     0.00000000

---------------------------
INTERNAL COORDINATES (A.U.)
---------------------------
 H      0   0   0     0.000000000000     0.00000000     0.00000000
 H      1   0   0     0.850376760265     0.00000000     0.00000000


Diagonalization of the overlap matrix:
Smallest eigenvalue                        ... 5.948e-03
Time for diagonalization                   ...    0.000 sec
Threshold for overlap eigenvalues          ... 1.000e-08
Number of eigenvalues below threshold      ... 0
Time for construction of square roots      ...    0.000 sec
Total time needed                          ...    0.000 sec

--------------
SCF ITERATIONS
--------------
ITER       Energy         Delta-E        Max-DP      RMS-DP      [F,P]     Damp
               ***  Starting incremental Fock matrix formation  ***
  0     -1.0115201881   0.000000000000 0.00318297  0.00055828  0.0382007 0.7000
                      *** Initiating the SOSCF procedure ***
                      *** Re-Reading the Fockian *** 
                      *** Removing any level shift *** 
ITER      Energy       Delta-E        Grad      Rot      Max-DP    RMS-DP
  1     -1.01181902  -0.0002988340  0.002725  0.002725  0.008608  0.001490
               *** Restarting incremental Fock matrix formation ***
  2     -1.01262061  -0.0008015922  0.002234  0.001950  0.001025  0.000217
  3     -1.01263484  -0.0000142263  0.000357  0.000435  0.000170  0.000051
                 **** Energy Check signals convergence ****
              ***Rediagonalizing the Fockian in SOSCF/NRSCF***

               *****************************************************
               *                     SUCCESS                       *
               *           SCF CONVERGED AFTER   4 CYCLES          *
               *****************************************************

Total Energy       :           -1.01263521 Eh             -27.55521 eV
  Last Energy change         ...   -3.7271e-07  Tolerance :   1.0000e-06
  Last MAX-Density change    ...    3.0500e-05  Tolerance :   1.0000e-05
             **** THE GBW FILE WAS UPDATED (orca.gbw) ****
             **** DENSITY FILE WAS UPDATED (orca.scfp) ****
             **** ENERGY FILE WAS UPDATED (orca.en.tmp) ****
             **** THE GBW FILE WAS UPDATED (orca.gbw) ****
             **** DENSITY FILE WAS UPDATED (orca.scfp) ****
Total SCF time: 0 days 0 hours 0 min 0 sec 


------------------------------------------------------------------------------- 
                              ORCA-MATRIX DRIVEN CI                            
------------------------------------------------------------------------------- 

--------------------------------
AUTOMATIC CHOICE OF INCORE LEVEL
--------------------------------

Memory available                           ...    256.00 MB
Memory needed for S+T                      ...      0.00 MB
Memory needed for J+K                      ...      0.01 MB
Memory needed for DIIS                     ...      0.03 MB
Memory needed for 3-ext                    ...      0.01 MB
Memory needed for 4-ext                    ...      0.06 MB
Memory needed for triples                  ...      0.05 MB
 -> Final InCoreLevel    ... 5
 -> check shows that triples correction can be computed


Wavefunction type
-----------------
Correlation treatment                      ...     QCISD     
Single excitations                         ... ON
Orbital optimization                       ... OFF
Calculation of Z vector                    ... OFF
Calculation of Brueckner orbitals          ... OFF
Perturbative triple excitations            ... ON
Calculation of F12 correction              ... OFF
Frozen core treatment                      ... chemical core (0 el)
Reference Wavefunction                     ... RHF
  Internal Orbitals:     0 ...    0 (  1 MO's/  2 electrons)
  Virtual  Orbitals:     1 ...   11 ( 11 MO's              )
Number of AO's                             ...     12
Number of electrons                        ...      2
Number of correlated electrons             ...      2

Algorithmic settings
--------------------
Integral transformation                    ... AO direct full transformation
K(C) Formation                             ... FULL-MO TRAFO
Maximum number of iterations               ...        50
Convergence tolerance (max. residuum)      ... 2.500e-05
Level shift for amplitude update           ... 2.000e-01
Maximum number of DIIS vectors             ...         7
DIIS turned on at iteration                ...         0
Damping before turning on DIIS             ...     0.500
Damping after turning on DIIS              ...     0.000
Pair specific amplitude update             ... OFF
Natural orbital iterations                 ... OFF
Perturbative natural orbital generation    ... OFF
Printlevel                                 ... 2

Memory handling:
----------------
Maximum memory for working arrays          ...    256 MB
Data storage in matrix containers          ... UNCOMPRESSED
Data type for integral storage             ... DOUBLE
In-Core Storage of quantities:
   Amplitudes+Sigma Vector      ... YES
   J+K operators                ... YES
   DIIS vectors                 ... YES
   3-external integrals         ... YES
   4-external integrals         ... YES


Initializing the integral package          ... done
Warning: reference  - re-canonicalizations have been set to INT 1 VIRT 1

--------------------------
CLOSED-SHELL FOCK OPERATOR
--------------------------

<ss|ss>:          231 b            0 skpd (  0.0%)    0.000 s ( 0.000 ms/b)
<ss|sp>:          252 b            0 skpd (  0.0%)    0.000 s ( 0.001 ms/b)
<ss|pp>:           63 b            0 skpd (  0.0%)    0.000 s ( 0.001 ms/b)
<sp|sp>:           78 b            0 skpd (  0.0%)    0.000 s ( 0.001 ms/b)
<sp|pp>:           36 b            0 skpd (  0.0%)    0.000 s ( 0.001 ms/b)
<pp|pp>:            6 b            0 skpd (  0.0%)    0.000 s ( 0.003 ms/b)
Recanonicalizing the internal orbitals
Recanonicalizing the virtual orbitals
Time needed for Fock operator              ...            0.001 sec
Reference energy                           ...     -1.012635216

------------------------------
PARTIAL COULOMB TRANSFORMATION
------------------------------

Transformation type                        ... one-operator
Dimension of the basis                     ...   12
Number of internal MOs                     ...   12 (0-11)
Pair cutoff                                ... 0.000e+00 Eh
Number of AO pairs included in the trafo   ...   78
Total Number of distinct AO pairs          ...   78
Memory devoted for trafo                   ...  256.0 MB 
Max. Number of MO pairs treated together   ... 430185      
Max. Number of MOs treated per batch       ... 35848      
Number Format for Storage                  ... Double (8 Byte)
AO-integral source                         ... DIRECT
Integral package used                      ... LIBINT

Starting integral evaluation:
<ss|**>:          756 b        0 skpd     0.000 s (  0.000 ms/b)
<sp|**>:          432 b        0 skpd     0.000 s (  0.001 ms/b)
<pp|**>:          108 b        0 skpd     0.000 s (  0.001 ms/b)
Closing buffer AOJ ( 0.00 GB; CompressionRatio= 0.98)
Collecting buffer AOJ 
    ... done with AO integral generation
Number of MO pairs included in the trafo   ...   78
    ... Now sorting integrals
IBATCH = 1 of  1
Closing buffer JAO ( 0.00 GB; CompressionRatio= 0.98)
Collecting buffer JAO 
TOTAL TIME for half transformation         ...     0.001 sec
AO-integral generation                     ...     0.001 sec
Half transformation                        ...     0.000 sec
J-integral sorting                         ...     0.000 sec

-------------------------- SECOND HALF TRANSFORMATION -------------------------
Formation of (pq|rs)                       ... ok (     0.000 sec)
Integral sorting                           ... ok (     0.000 sec)

------------------
CLOSED SHELL GUESS
------------------

Initial guess performed in     0.000 sec
E(0)                                       ...     -1.012635216
E(MP2)                                     ...     -0.026932064
Initial E(tot)                             ...     -1.039567280
<T|T>                                      ...      0.006832117
Number of pairs included                   ... 1
Total number of pairs                      ... 1

---------------------------
RHF QUADRATIC CI ITERATIONS
---------------------------

Number of amplitudes to be optimized       ... 132

Iter       E(tot)           E(Corr)          Delta-E          Residual     Time
  0     -1.039567280     -0.026932064      0.000000000      0.027500278    0.00
                           *** Turning on DIIS ***
  1     -1.044532517     -0.031897301     -0.004965237      0.006621965    0.00
  2     -1.046293218     -0.033658002     -0.001760701      0.000941922    0.00
  3     -1.046377831     -0.033742615     -0.000084613      0.000216508    0.00
  4     -1.046384581     -0.033749366     -0.000006751      0.000026314    0.00
  5     -1.046385484     -0.033750268     -0.000000902      0.000005931    0.00
               --- The Quadratic CI iterations have converged ---

-------------------
QUADRATIC CI ENERGY
-------------------

E(0)                                       ...     -1.012635216
E(CORR)                                    ...     -0.033750268
E(TOT)                                     ...     -1.046385484
Singles Norm <S|S>**1/2                    ...      0.002173158  
T1 diagnostic                              ...      0.001536655  

------------------
LARGEST AMPLITUDES
------------------
   0->  5   0->  5       0.040865
   0->  4   0->  4       0.040865
   0->  3   0->  3       0.036135
   0->  2   0->  2       0.035010
   0->  6   0->  6       0.028682
   0->  2   0->  6       0.025569
   0->  6   0->  2       0.025569
   0->  3   0->  7       0.021989
   0->  7   0->  3       0.021989
   0->  3   0->  1       0.021793
   0->  1   0->  3       0.021793
   0->  7   0->  7       0.019066
   0->  1   0->  1       0.014678
   0->  1   0->  7       0.011057
   0->  7   0->  1       0.011057
   0-> 10   0-> 10       0.009587


        !!!!!!!!!!!!!!!!!!!!!!!!!!!!!!!!!!!!!!!!!!!!!!!!!!!!!!!!!!!!!!!!!!!!!!!!!! 
        !  Warning: Densities are linearized densities !                         !
        !!!!!!!!!!!!!!!!!!!!!!!!!!!!!!!!!!!!!!!!!!!!!!!!!!!!!!!!!!!!!!!!!!!!!!!!!! 

Trace of internal density part =     -0.022568300
Trace of external density part =      0.022568300
----------------------
RHF TRIPLES CORRECTION (Algorithm 1)
----------------------

Multiplier for the singles contribution    ...      2.000000000

Triples Correction (T)                     ...      0.000000000
Scaling of triples based on CCSD energies (Peterson et al. Molecular Physics 113, 1551 (2015))
E(T*) = f*E(T) where f = E(F12-CCSD)/E(CCSD) 
f = CCSD (with F12)/ CCSD (without F12)    ...      1.000000000
Scaled triples correction (T)              ...      0.000000000

Final correlation energy                   ...     -0.033750268
E(QCISD)                                   ...     -1.046385484
E(QCISD(T))                                ...     -1.046385484

NORM  =      1.011288873 sqrt=     1.005628596
W(HF) =      0.988837143
------------------------------------------------------------------------------
                           ORCA POPULATION ANALYSIS
------------------------------------------------------------------------------
Input electron density              ... orca.mdcip
BaseName (.gbw .S,...)              ... orca


------------------------------------------------------------------------------- 
                                     TIMINGS                                   
------------------------------------------------------------------------------- 


Total execution time                   ...        0.113 sec

Fock Matrix Formation                  ...        0.001 sec (  0.8%)
Initial Guess                          ...        0.000 sec (  0.0%)
DIIS Solver                            ...        0.000 sec (  0.1%)
State Vector Update                    ...        0.000 sec (  0.0%)
Sigma-vector construction              ...        0.001 sec (  0.9%)
Total Time for computing (T)           ...        0.000 sec (  0.0% of ALL)


-------------------------   --------------------
FINAL SINGLE POINT ENERGY        -1.046385483617
-------------------------   --------------------

Storing actual gbw-file in orca.002.gbw ... done

                            ***************************************
                            *     ORCA property calculations      *
                            ***************************************

                                    ---------------------
                                    Active property flags
                                    ---------------------
   (+) Dipole Moment


------------------------------------------------------------------------------
                       ORCA ELECTRIC PROPERTIES CALCULATION
------------------------------------------------------------------------------

Dipole Moment Calculation                       ... on
Quadrupole Moment Calculation                   ... off
Polarizability Calculation                      ... off
GBWName                                         ... orca.gbw
Electron density file                           ... orca.scfp
The origin for moment calculation is the CENTER OF MASS  = ( 0.425188,  0.000000  0.000000)

-------------
DIPOLE MOMENT
-------------
                                X             Y             Z
Electronic contribution:      0.00000       0.00000       0.00000
Nuclear contribution   :      0.00000       0.00000       0.00000
                        -----------------------------------------
Total Dipole Moment    :      0.00000       0.00000       0.00000
                        -----------------------------------------
Magnitude (a.u.)       :      0.00000
Magnitude (Debye)      :      0.00000



--------------------
Rotational spectrum 
--------------------
 
Rotational constants in cm-1:     0.000000   165.173867   165.173867 
Rotational constants in MHz :     0.000000 4951787.964811 4951787.964811 

 Dipole components along the rotational axes: 
x,y,z [a.u.] :     0.000000     0.000000     0.000000 
x,y,z [Debye]:     0.000000     0.000000     0.000000 

 

                           *** MDCI DENSITY ***

------------------------------------------------------------------------------
                       ORCA ELECTRIC PROPERTIES CALCULATION
------------------------------------------------------------------------------

Dipole Moment Calculation                       ... on
Quadrupole Moment Calculation                   ... off
Polarizability Calculation                      ... off
GBWName                                         ... orca.gbw
Electron density file                           ... orca.mdcip
The origin for moment calculation is the CENTER OF MASS  = ( 0.425188,  0.000000  0.000000)

-------------
DIPOLE MOMENT
-------------
                                X             Y             Z
Electronic contribution:      0.00000      -0.00000      -0.00000
Nuclear contribution   :      0.00000       0.00000       0.00000
                        -----------------------------------------
Total Dipole Moment    :      0.00000      -0.00000      -0.00000
                        -----------------------------------------
Magnitude (a.u.)       :      0.00000
Magnitude (Debye)      :      0.00000



--------------------
Rotational spectrum 
--------------------
 
Rotational constants in cm-1:     0.000000   165.173867   165.173867 
Rotational constants in MHz :     0.000000 4951787.964811 4951787.964811 

 Dipole components along the rotational axes: 
x,y,z [a.u.] :     0.000000    -0.000000    -0.000000 
x,y,z [Debye]:     0.000000    -0.000000    -0.000000 

 

         *************************************************************
                                TRAJECTORY STEP   3
                  R  :   0.50000000
         *************************************************************
---------------------------------
CARTESIAN COORDINATES (ANGSTROEM)
---------------------------------
  H      0.000000    0.000000    0.000000
  H      0.500000    0.000000    0.000000

----------------------------
CARTESIAN COORDINATES (A.U.)
----------------------------
  NO LB      ZA    FRAG     MASS         X           Y           Z
   0 H     1.0000    0     1.008    0.000000    0.000000    0.000000
   1 H     1.0000    0     1.008    0.944863    0.000000    0.000000

--------------------------------
INTERNAL COORDINATES (ANGSTROEM)
--------------------------------
 H      0   0   0     0.000000000000     0.00000000     0.00000000
 H      1   0   0     0.500000000000     0.00000000     0.00000000

---------------------------
INTERNAL COORDINATES (A.U.)
---------------------------
 H      0   0   0     0.000000000000     0.00000000     0.00000000
 H      1   0   0     0.944863066961     0.00000000     0.00000000


Diagonalization of the overlap matrix:
Smallest eigenvalue                        ... 6.971e-03
Time for diagonalization                   ...    0.000 sec
Threshold for overlap eigenvalues          ... 1.000e-08
Number of eigenvalues below threshold      ... 0
Time for construction of square roots      ...    0.000 sec
Total time needed                          ...    0.000 sec

--------------
SCF ITERATIONS
--------------
ITER       Energy         Delta-E        Max-DP      RMS-DP      [F,P]     Damp
               ***  Starting incremental Fock matrix formation  ***
  0     -1.0611418619   0.000000000000 0.00279821  0.00050028  0.0354489 0.7000
                      *** Initiating the SOSCF procedure ***
                      *** Re-Reading the Fockian *** 
                      *** Removing any level shift *** 
ITER      Energy       Delta-E        Grad      Rot      Max-DP    RMS-DP
  1     -1.06140054  -0.0002586785  0.002663  0.002663  0.007566  0.001339
               *** Restarting incremental Fock matrix formation ***
  2     -1.06209725  -0.0006967108  0.002069  0.001969  0.000902  0.000213
  3     -1.06211061  -0.0000133591  0.000361  0.000451  0.000205  0.000054
                 **** Energy Check signals convergence ****
              ***Rediagonalizing the Fockian in SOSCF/NRSCF***

               *****************************************************
               *                     SUCCESS                       *
               *           SCF CONVERGED AFTER   4 CYCLES          *
               *****************************************************

Total Energy       :           -1.06211099 Eh             -28.90151 eV
  Last Energy change         ...   -3.7781e-07  Tolerance :   1.0000e-06
  Last MAX-Density change    ...    3.1542e-05  Tolerance :   1.0000e-05
             **** THE GBW FILE WAS UPDATED (orca.gbw) ****
             **** DENSITY FILE WAS UPDATED (orca.scfp) ****
             **** ENERGY FILE WAS UPDATED (orca.en.tmp) ****
             **** THE GBW FILE WAS UPDATED (orca.gbw) ****
             **** DENSITY FILE WAS UPDATED (orca.scfp) ****
Total SCF time: 0 days 0 hours 0 min 0 sec 


------------------------------------------------------------------------------- 
                              ORCA-MATRIX DRIVEN CI                            
------------------------------------------------------------------------------- 

--------------------------------
AUTOMATIC CHOICE OF INCORE LEVEL
--------------------------------

Memory available                           ...    256.00 MB
Memory needed for S+T                      ...      0.00 MB
Memory needed for J+K                      ...      0.01 MB
Memory needed for DIIS                     ...      0.03 MB
Memory needed for 3-ext                    ...      0.01 MB
Memory needed for 4-ext                    ...      0.06 MB
Memory needed for triples                  ...      0.05 MB
 -> Final InCoreLevel    ... 5
 -> check shows that triples correction can be computed


Wavefunction type
-----------------
Correlation treatment                      ...     QCISD     
Single excitations                         ... ON
Orbital optimization                       ... OFF
Calculation of Z vector                    ... OFF
Calculation of Brueckner orbitals          ... OFF
Perturbative triple excitations            ... ON
Calculation of F12 correction              ... OFF
Frozen core treatment                      ... chemical core (0 el)
Reference Wavefunction                     ... RHF
  Internal Orbitals:     0 ...    0 (  1 MO's/  2 electrons)
  Virtual  Orbitals:     1 ...   11 ( 11 MO's              )
Number of AO's                             ...     12
Number of electrons                        ...      2
Number of correlated electrons             ...      2

Algorithmic settings
--------------------
Integral transformation                    ... AO direct full transformation
K(C) Formation                             ... FULL-MO TRAFO
Maximum number of iterations               ...        50
Convergence tolerance (max. residuum)      ... 2.500e-05
Level shift for amplitude update           ... 2.000e-01
Maximum number of DIIS vectors             ...         7
DIIS turned on at iteration                ...         0
Damping before turning on DIIS             ...     0.500
Damping after turning on DIIS              ...     0.000
Pair specific amplitude update             ... OFF
Natural orbital iterations                 ... OFF
Perturbative natural orbital generation    ... OFF
Printlevel                                 ... 2

Memory handling:
----------------
Maximum memory for working arrays          ...    256 MB
Data storage in matrix containers          ... UNCOMPRESSED
Data type for integral storage             ... DOUBLE
In-Core Storage of quantities:
   Amplitudes+Sigma Vector      ... YES
   J+K operators                ... YES
   DIIS vectors                 ... YES
   3-external integrals         ... YES
   4-external integrals         ... YES


Initializing the integral package          ... done
Warning: reference  - re-canonicalizations have been set to INT 1 VIRT 1

--------------------------
CLOSED-SHELL FOCK OPERATOR
--------------------------

<ss|ss>:          231 b            0 skpd (  0.0%)    0.000 s ( 0.000 ms/b)
<ss|sp>:          252 b            0 skpd (  0.0%)    0.000 s ( 0.001 ms/b)
<ss|pp>:           63 b            0 skpd (  0.0%)    0.000 s ( 0.001 ms/b)
<sp|sp>:           78 b            0 skpd (  0.0%)    0.000 s ( 0.001 ms/b)
<sp|pp>:           36 b            0 skpd (  0.0%)    0.000 s ( 0.001 ms/b)
<pp|pp>:            6 b            0 skpd (  0.0%)    0.000 s ( 0.003 ms/b)
Recanonicalizing the internal orbitals
Recanonicalizing the virtual orbitals
Time needed for Fock operator              ...            0.001 sec
Reference energy                           ...     -1.062110990

------------------------------
PARTIAL COULOMB TRANSFORMATION
------------------------------

Transformation type                        ... one-operator
Dimension of the basis                     ...   12
Number of internal MOs                     ...   12 (0-11)
Pair cutoff                                ... 0.000e+00 Eh
Number of AO pairs included in the trafo   ...   78
Total Number of distinct AO pairs          ...   78
Memory devoted for trafo                   ...  256.0 MB 
Max. Number of MO pairs treated together   ... 430185      
Max. Number of MOs treated per batch       ... 35848      
Number Format for Storage                  ... Double (8 Byte)
AO-integral source                         ... DIRECT
Integral package used                      ... LIBINT

Starting integral evaluation:
<ss|**>:          756 b        0 skpd     0.000 s (  0.000 ms/b)
<sp|**>:          432 b        0 skpd     0.000 s (  0.001 ms/b)
<pp|**>:          108 b        0 skpd     0.000 s (  0.001 ms/b)
Closing buffer AOJ ( 0.00 GB; CompressionRatio= 0.98)
Collecting buffer AOJ 
    ... done with AO integral generation
Number of MO pairs included in the trafo   ...   78
    ... Now sorting integrals
IBATCH = 1 of  1
Closing buffer JAO ( 0.00 GB; CompressionRatio= 0.98)
Collecting buffer JAO 
TOTAL TIME for half transformation         ...     0.001 sec
AO-integral generation                     ...     0.001 sec
Half transformation                        ...     0.000 sec
J-integral sorting                         ...     0.000 sec

-------------------------- SECOND HALF TRANSFORMATION -------------------------
Formation of (pq|rs)                       ... ok (     0.000 sec)
Integral sorting                           ... ok (     0.000 sec)

------------------
CLOSED SHELL GUESS
------------------

Initial guess performed in     0.000 sec
E(0)                                       ...     -1.062110990
E(MP2)                                     ...     -0.027068958
Initial E(tot)                             ...     -1.089179949
<T|T>                                      ...      0.007137295
Number of pairs included                   ... 1
Total number of pairs                      ... 1

---------------------------
RHF QUADRATIC CI ITERATIONS
---------------------------

Number of amplitudes to be optimized       ... 132

Iter       E(tot)           E(Corr)          Delta-E          Residual     Time
  0     -1.089179949     -0.027068958      0.000000000      0.026984890    0.00
                           *** Turning on DIIS ***
  1     -1.094187845     -0.032076855     -0.005007897      0.007332112    0.00
  2     -1.096022972     -0.033911982     -0.001835127      0.001133212    0.00
  3     -1.096120514     -0.034009524     -0.000097542      0.000262732    0.00
  4     -1.096129036     -0.034018046     -0.000008522      0.000032511    0.00
  5     -1.096130053     -0.034019063     -0.000001017      0.000003778    0.00
               --- The Quadratic CI iterations have converged ---

-------------------
QUADRATIC CI ENERGY
-------------------

E(0)                                       ...     -1.062110990
E(CORR)                                    ...     -0.034019063
E(TOT)                                     ...     -1.096130053
Singles Norm <S|S>**1/2                    ...      0.002976642  
T1 diagnostic                              ...      0.002104804  

------------------
LARGEST AMPLITUDES
------------------
   0->  5   0->  5       0.040890
   0->  4   0->  4       0.040890
   0->  3   0->  3       0.039710
   0->  2   0->  2       0.036051
   0->  6   0->  6       0.027107
   0->  1   0->  3       0.024893
   0->  3   0->  1       0.024893
   0->  2   0->  6       0.024883
   0->  6   0->  2       0.024883
   0->  3   0->  7       0.022418
   0->  7   0->  3       0.022418
   0->  7   0->  7       0.018241
   0->  1   0->  1       0.017476
   0->  1   0->  7       0.011685
   0->  7   0->  1       0.011685
   0-> 10   0-> 10       0.009918


        !!!!!!!!!!!!!!!!!!!!!!!!!!!!!!!!!!!!!!!!!!!!!!!!!!!!!!!!!!!!!!!!!!!!!!!!!! 
        !  Warning: Densities are linearized densities !                         !
        !!!!!!!!!!!!!!!!!!!!!!!!!!!!!!!!!!!!!!!!!!!!!!!!!!!!!!!!!!!!!!!!!!!!!!!!!! 

Trace of internal density part =     -0.023868470
Trace of external density part =      0.023868470
----------------------
RHF TRIPLES CORRECTION (Algorithm 1)
----------------------

Multiplier for the singles contribution    ...      2.000000000

Triples Correction (T)                     ...      0.000000000
Scaling of triples based on CCSD energies (Peterson et al. Molecular Physics 113, 1551 (2015))
E(T*) = f*E(T) where f = E(F12-CCSD)/E(CCSD) 
f = CCSD (with F12)/ CCSD (without F12)    ...      1.000000000
Scaled triples correction (T)              ...      0.000000000

Final correlation energy                   ...     -0.034019063
E(QCISD)                                   ...     -1.096130053
E(QCISD(T))                                ...     -1.096130053

NORM  =      1.011943095 sqrt=     1.005953824
W(HF) =      0.988197859
------------------------------------------------------------------------------
                           ORCA POPULATION ANALYSIS
------------------------------------------------------------------------------
Input electron density              ... orca.mdcip
BaseName (.gbw .S,...)              ... orca


------------------------------------------------------------------------------- 
                                     TIMINGS                                   
------------------------------------------------------------------------------- 


Total execution time                   ...        0.112 sec

Fock Matrix Formation                  ...        0.001 sec (  0.8%)
Initial Guess                          ...        0.000 sec (  0.0%)
DIIS Solver                            ...        0.000 sec (  0.1%)
State Vector Update                    ...        0.000 sec (  0.0%)
Sigma-vector construction              ...        0.001 sec (  0.9%)
Total Time for computing (T)           ...        0.000 sec (  0.0% of ALL)


-------------------------   --------------------
FINAL SINGLE POINT ENERGY        -1.096130053165
-------------------------   --------------------

Storing actual gbw-file in orca.003.gbw ... done

                            ***************************************
                            *     ORCA property calculations      *
                            ***************************************

                                    ---------------------
                                    Active property flags
                                    ---------------------
   (+) Dipole Moment


------------------------------------------------------------------------------
                       ORCA ELECTRIC PROPERTIES CALCULATION
------------------------------------------------------------------------------

Dipole Moment Calculation                       ... on
Quadrupole Moment Calculation                   ... off
Polarizability Calculation                      ... off
GBWName                                         ... orca.gbw
Electron density file                           ... orca.scfp
The origin for moment calculation is the CENTER OF MASS  = ( 0.472432,  0.000000  0.000000)

-------------
DIPOLE MOMENT
-------------
                                X             Y             Z
Electronic contribution:      0.00000       0.00000       0.00000
Nuclear contribution   :      0.00000       0.00000       0.00000
                        -----------------------------------------
Total Dipole Moment    :      0.00000       0.00000       0.00000
                        -----------------------------------------
Magnitude (a.u.)       :      0.00000
Magnitude (Debye)      :      0.00000



--------------------
Rotational spectrum 
--------------------
 
Rotational constants in cm-1:     0.000000   133.790832   133.790832 
Rotational constants in MHz :     0.000000 4010948.251497 4010948.251497 

 Dipole components along the rotational axes: 
x,y,z [a.u.] :     0.000000     0.000000     0.000000 
x,y,z [Debye]:     0.000000     0.000000     0.000000 

 

                           *** MDCI DENSITY ***

------------------------------------------------------------------------------
                       ORCA ELECTRIC PROPERTIES CALCULATION
------------------------------------------------------------------------------

Dipole Moment Calculation                       ... on
Quadrupole Moment Calculation                   ... off
Polarizability Calculation                      ... off
GBWName                                         ... orca.gbw
Electron density file                           ... orca.mdcip
The origin for moment calculation is the CENTER OF MASS  = ( 0.472432,  0.000000  0.000000)

-------------
DIPOLE MOMENT
-------------
                                X             Y             Z
Electronic contribution:      0.00000      -0.00000      -0.00000
Nuclear contribution   :      0.00000       0.00000       0.00000
                        -----------------------------------------
Total Dipole Moment    :      0.00000      -0.00000      -0.00000
                        -----------------------------------------
Magnitude (a.u.)       :      0.00000
Magnitude (Debye)      :      0.00000



--------------------
Rotational spectrum 
--------------------
 
Rotational constants in cm-1:     0.000000   133.790832   133.790832 
Rotational constants in MHz :     0.000000 4010948.251497 4010948.251497 

 Dipole components along the rotational axes: 
x,y,z [a.u.] :     0.000000    -0.000000    -0.000000 
x,y,z [Debye]:     0.000000    -0.000000    -0.000000 

 

         *************************************************************
                                TRAJECTORY STEP   4
                  R  :   0.55000000
         *************************************************************
---------------------------------
CARTESIAN COORDINATES (ANGSTROEM)
---------------------------------
  H      0.000000    0.000000    0.000000
  H      0.550000    0.000000    0.000000

----------------------------
CARTESIAN COORDINATES (A.U.)
----------------------------
  NO LB      ZA    FRAG     MASS         X           Y           Z
   0 H     1.0000    0     1.008    0.000000    0.000000    0.000000
   1 H     1.0000    0     1.008    1.039349    0.000000    0.000000

--------------------------------
INTERNAL COORDINATES (ANGSTROEM)
--------------------------------
 H      0   0   0     0.000000000000     0.00000000     0.00000000
 H      1   0   0     0.550000000000     0.00000000     0.00000000

---------------------------
INTERNAL COORDINATES (A.U.)
---------------------------
 H      0   0   0     0.000000000000     0.00000000     0.00000000
 H      1   0   0     1.039349373657     0.00000000     0.00000000


Diagonalization of the overlap matrix:
Smallest eigenvalue                        ... 8.166e-03
Time for diagonalization                   ...    0.000 sec
Threshold for overlap eigenvalues          ... 1.000e-08
Number of eigenvalues below threshold      ... 0
Time for construction of square roots      ...    0.000 sec
Total time needed                          ...    0.000 sec

--------------
SCF ITERATIONS
--------------
ITER       Energy         Delta-E        Max-DP      RMS-DP      [F,P]     Damp
               ***  Starting incremental Fock matrix formation  ***
  0     -1.0935479459   0.000000000000 0.00244996  0.00044774  0.0326295 0.7000
                      *** Initiating the SOSCF procedure ***
                      *** Re-Reading the Fockian *** 
                      *** Removing any level shift *** 
ITER      Energy       Delta-E        Grad      Rot      Max-DP    RMS-DP
  1     -1.09376972  -0.0002217730  0.002588  0.002588  0.006624  0.001205
               *** Restarting incremental Fock matrix formation ***
  2     -1.09436977  -0.0006000473  0.001922  0.001974  0.000791  0.000212
  3     -1.09438225  -0.0000124835  0.000363  0.000464  0.000238  0.000058
                 **** Energy Check signals convergence ****
              ***Rediagonalizing the Fockian in SOSCF/NRSCF***

               *****************************************************
               *                     SUCCESS                       *
               *           SCF CONVERGED AFTER   4 CYCLES          *
               *****************************************************

Total Energy       :           -1.09438263 Eh             -29.77967 eV
  Last Energy change         ...   -3.7986e-07  Tolerance :   1.0000e-06
  Last MAX-Density change    ...    3.1780e-05  Tolerance :   1.0000e-05
             **** THE GBW FILE WAS UPDATED (orca.gbw) ****
             **** DENSITY FILE WAS UPDATED (orca.scfp) ****
             **** ENERGY FILE WAS UPDATED (orca.en.tmp) ****
             **** THE GBW FILE WAS UPDATED (orca.gbw) ****
             **** DENSITY FILE WAS UPDATED (orca.scfp) ****
Total SCF time: 0 days 0 hours 0 min 0 sec 


------------------------------------------------------------------------------- 
                              ORCA-MATRIX DRIVEN CI                            
------------------------------------------------------------------------------- 

--------------------------------
AUTOMATIC CHOICE OF INCORE LEVEL
--------------------------------

Memory available                           ...    256.00 MB
Memory needed for S+T                      ...      0.00 MB
Memory needed for J+K                      ...      0.01 MB
Memory needed for DIIS                     ...      0.03 MB
Memory needed for 3-ext                    ...      0.01 MB
Memory needed for 4-ext                    ...      0.06 MB
Memory needed for triples                  ...      0.05 MB
 -> Final InCoreLevel    ... 5
 -> check shows that triples correction can be computed


Wavefunction type
-----------------
Correlation treatment                      ...     QCISD     
Single excitations                         ... ON
Orbital optimization                       ... OFF
Calculation of Z vector                    ... OFF
Calculation of Brueckner orbitals          ... OFF
Perturbative triple excitations            ... ON
Calculation of F12 correction              ... OFF
Frozen core treatment                      ... chemical core (0 el)
Reference Wavefunction                     ... RHF
  Internal Orbitals:     0 ...    0 (  1 MO's/  2 electrons)
  Virtual  Orbitals:     1 ...   11 ( 11 MO's              )
Number of AO's                             ...     12
Number of electrons                        ...      2
Number of correlated electrons             ...      2

Algorithmic settings
--------------------
Integral transformation                    ... AO direct full transformation
K(C) Formation                             ... FULL-MO TRAFO
Maximum number of iterations               ...        50
Convergence tolerance (max. residuum)      ... 2.500e-05
Level shift for amplitude update           ... 2.000e-01
Maximum number of DIIS vectors             ...         7
DIIS turned on at iteration                ...         0
Damping before turning on DIIS             ...     0.500
Damping after turning on DIIS              ...     0.000
Pair specific amplitude update             ... OFF
Natural orbital iterations                 ... OFF
Perturbative natural orbital generation    ... OFF
Printlevel                                 ... 2

Memory handling:
----------------
Maximum memory for working arrays          ...    256 MB
Data storage in matrix containers          ... UNCOMPRESSED
Data type for integral storage             ... DOUBLE
In-Core Storage of quantities:
   Amplitudes+Sigma Vector      ... YES
   J+K operators                ... YES
   DIIS vectors                 ... YES
   3-external integrals         ... YES
   4-external integrals         ... YES


Initializing the integral package          ... done
Warning: reference  - re-canonicalizations have been set to INT 1 VIRT 1

--------------------------
CLOSED-SHELL FOCK OPERATOR
--------------------------

<ss|ss>:          231 b            0 skpd (  0.0%)    0.000 s ( 0.000 ms/b)
<ss|sp>:          252 b            0 skpd (  0.0%)    0.000 s ( 0.001 ms/b)
<ss|pp>:           63 b            0 skpd (  0.0%)    0.000 s ( 0.001 ms/b)
<sp|sp>:           78 b            0 skpd (  0.0%)    0.000 s ( 0.001 ms/b)
<sp|pp>:           36 b            0 skpd (  0.0%)    0.000 s ( 0.001 ms/b)
<pp|pp>:            6 b            0 skpd (  0.0%)    0.000 s ( 0.003 ms/b)
Recanonicalizing the internal orbitals
Recanonicalizing the virtual orbitals
Time needed for Fock operator              ...            0.001 sec
Reference energy                           ...     -1.094382632

------------------------------
PARTIAL COULOMB TRANSFORMATION
------------------------------

Transformation type                        ... one-operator
Dimension of the basis                     ...   12
Number of internal MOs                     ...   12 (0-11)
Pair cutoff                                ... 0.000e+00 Eh
Number of AO pairs included in the trafo   ...   78
Total Number of distinct AO pairs          ...   78
Memory devoted for trafo                   ...  256.0 MB 
Max. Number of MO pairs treated together   ... 430185      
Max. Number of MOs treated per batch       ... 35848      
Number Format for Storage                  ... Double (8 Byte)
AO-integral source                         ... DIRECT
Integral package used                      ... LIBINT

Starting integral evaluation:
<ss|**>:          756 b        0 skpd     0.000 s (  0.001 ms/b)
<sp|**>:          432 b        0 skpd     0.000 s (  0.001 ms/b)
<pp|**>:          108 b        0 skpd     0.000 s (  0.001 ms/b)
Closing buffer AOJ ( 0.00 GB; CompressionRatio= 0.98)
Collecting buffer AOJ 
    ... done with AO integral generation
Number of MO pairs included in the trafo   ...   78
    ... Now sorting integrals
IBATCH = 1 of  1
Closing buffer JAO ( 0.00 GB; CompressionRatio= 0.98)
Collecting buffer JAO 
TOTAL TIME for half transformation         ...     0.001 sec
AO-integral generation                     ...     0.001 sec
Half transformation                        ...     0.000 sec
J-integral sorting                         ...     0.000 sec

-------------------------- SECOND HALF TRANSFORMATION -------------------------
Formation of (pq|rs)                       ... ok (     0.000 sec)
Integral sorting                           ... ok (     0.000 sec)

------------------
CLOSED SHELL GUESS
------------------

[...]
Time needed for Fock operator              ...            0.001 sec
Reference energy                           ...     -0.923785400

------------------------------
PARTIAL COULOMB TRANSFORMATION
------------------------------

Transformation type                        ... one-operator
Dimension of the basis                     ...   12
Number of internal MOs                     ...   12 (0-11)
Pair cutoff                                ... 0.000e+00 Eh
Number of AO pairs included in the trafo   ...   78
Total Number of distinct AO pairs          ...   78
Memory devoted for trafo                   ...  256.0 MB 
Max. Number of MO pairs treated together   ... 430185      
Max. Number of MOs treated per batch       ... 35848      
Number Format for Storage                  ... Double (8 Byte)
AO-integral source                         ... DIRECT
Integral package used                      ... LIBINT

Starting integral evaluation:
<ss|**>:          756 b        0 skpd     0.000 s (  0.000 ms/b)
<sp|**>:          432 b        0 skpd     0.000 s (  0.001 ms/b)
<pp|**>:          108 b        0 skpd     0.000 s (  0.002 ms/b)
Closing buffer AOJ ( 0.00 GB; CompressionRatio= 0.98)
Collecting buffer AOJ 
    ... done with AO integral generation
Number of MO pairs included in the trafo   ...   78
    ... Now sorting integrals
IBATCH = 1 of  1
Closing buffer JAO ( 0.00 GB; CompressionRatio= 0.98)
Collecting buffer JAO 
TOTAL TIME for half transformation         ...     0.001 sec
AO-integral generation                     ...     0.000 sec
Half transformation                        ...     0.000 sec
J-integral sorting                         ...     0.000 sec

-------------------------- SECOND HALF TRANSFORMATION -------------------------
Formation of (pq|rs)                       ... ok (     0.000 sec)
Integral sorting                           ... ok (     0.000 sec)

------------------
CLOSED SHELL GUESS
------------------

Initial guess performed in     0.000 sec
E(0)                                       ...     -0.923785400
E(MP2)                                     ...     -0.048902049
Initial E(tot)                             ...     -0.972687449
<T|T>                                      ...      0.054783809
Number of pairs included                   ... 1
Total number of pairs                      ... 1

---------------------------
RHF QUADRATIC CI ITERATIONS
---------------------------

Number of amplitudes to be optimized       ... 132

Iter       E(tot)           E(Corr)          Delta-E          Residual     Time
  0     -0.972687449     -0.048902049      0.000000000      0.080055944    0.00
                           *** Turning on DIIS ***
  1     -0.986815136     -0.063029735     -0.014127687      0.058453252    0.00
  2     -1.007118028     -0.083332628     -0.020302892      0.022612499    0.00
  3     -1.019174020     -0.095388620     -0.012055993      0.003050947    0.00
  4     -1.018670527     -0.094885127      0.000503493      0.000880069    0.00
  5     -1.018786156     -0.095000756     -0.000115629      0.000131360    0.00
  6     -1.018798119     -0.095012718     -0.000011962      0.000048137    0.00
  7     -1.018790685     -0.095005285      0.000007434      0.000006072    0.00
               --- The Quadratic CI iterations have converged ---

-------------------
QUADRATIC CI ENERGY
-------------------

E(0)                                       ...     -0.923785400
E(CORR)                                    ...     -0.095005285
E(TOT)                                     ...     -1.018790685
Singles Norm <S|S>**1/2                    ...      0.082970890  
T1 diagnostic                              ...      0.058669279  

------------------
LARGEST AMPLITUDES
------------------
   0->  1   0->  1       0.495290
   0->  1   0->  3       0.126853
   0->  3   0->  1       0.126853
   0->  2  -1-> -1       0.080088
   0->  3   0->  3       0.037243
   0->  4  -1-> -1       0.016473
   0-> 10  -1-> -1       0.014097
   0->  4   0->  4       0.012578
   0->  1   0-> 11       0.011870
   0-> 11   0->  1       0.011870
   0->  1   0->  9       0.010532
   0->  9   0->  1       0.010532
   0->  5   0->  5       0.009006
   0->  6   0->  6       0.009006
   0->  2   0->  4       0.007037
   0->  4   0->  2       0.007037


        !!!!!!!!!!!!!!!!!!!!!!!!!!!!!!!!!!!!!!!!!!!!!!!!!!!!!!!!!!!!!!!!!!!!!!!!!! 
        !  Warning: Densities are linearized densities !                         !
        !!!!!!!!!!!!!!!!!!!!!!!!!!!!!!!!!!!!!!!!!!!!!!!!!!!!!!!!!!!!!!!!!!!!!!!!!! 

Trace of internal density part =     -0.573760543
Trace of external density part =      0.573760543
----------------------
RHF TRIPLES CORRECTION (Algorithm 1)
----------------------

Multiplier for the singles contribution    ...      2.000000000

Triples Correction (T)                     ...      0.000000000
Scaling of triples based on CCSD energies (Peterson et al. Molecular Physics 113, 1551 (2015))
E(T*) = f*E(T) where f = E(F12-CCSD)/E(CCSD) 
f = CCSD (with F12)/ CCSD (without F12)    ...      1.000000000
Scaled triples correction (T)              ...      0.000000000

Final correlation energy                   ...     -0.095005285
E(QCISD)                                   ...     -1.018790685
E(QCISD(T))                                ...     -1.018790685

NORM  =      1.293764440 sqrt=     1.137437664
W(HF) =      0.772938233
------------------------------------------------------------------------------
                           ORCA POPULATION ANALYSIS
------------------------------------------------------------------------------
Input electron density              ... orca.mdcip
BaseName (.gbw .S,...)              ... orca


------------------------------------------------------------------------------- 
                                     TIMINGS                                   
------------------------------------------------------------------------------- 


Total execution time                   ...        0.144 sec

Fock Matrix Formation                  ...        0.001 sec (  0.6%)
Initial Guess                          ...        0.000 sec (  0.0%)
DIIS Solver                            ...        0.000 sec (  0.2%)
State Vector Update                    ...        0.000 sec (  0.0%)
Sigma-vector construction              ...        0.001 sec (  0.9%)
Total Time for computing (T)           ...        0.000 sec (  0.0% of ALL)


-------------------------   --------------------
FINAL SINGLE POINT ENERGY        -1.018790685022
-------------------------   --------------------

Storing actual gbw-file in orca.033.gbw ... done

                            ***************************************
                            *     ORCA property calculations      *
                            ***************************************

                                    ---------------------
                                    Active property flags
                                    ---------------------
   (+) Dipole Moment


------------------------------------------------------------------------------
                       ORCA ELECTRIC PROPERTIES CALCULATION
------------------------------------------------------------------------------

Dipole Moment Calculation                       ... on
Quadrupole Moment Calculation                   ... off
Polarizability Calculation                      ... off
GBWName                                         ... orca.gbw
Electron density file                           ... orca.scfp
The origin for moment calculation is the CENTER OF MASS  = ( 1.889726,  0.000000  0.000000)

-------------
DIPOLE MOMENT
-------------
                                X             Y             Z
Electronic contribution:     -0.00000      -0.00000       0.00000
Nuclear contribution   :      0.00000       0.00000       0.00000
                        -----------------------------------------
Total Dipole Moment    :     -0.00000      -0.00000       0.00000
                        -----------------------------------------
Magnitude (a.u.)       :      0.00000
Magnitude (Debye)      :      0.00000



--------------------
Rotational spectrum 
--------------------
 
Rotational constants in cm-1:     0.000000     8.361927     8.361927 
Rotational constants in MHz :     0.000000 250684.265719 250684.265719 

 Dipole components along the rotational axes: 
x,y,z [a.u.] :    -0.000000    -0.000000     0.000000 
x,y,z [Debye]:    -0.000000    -0.000000     0.000000 

 

                           *** MDCI DENSITY ***

------------------------------------------------------------------------------
                       ORCA ELECTRIC PROPERTIES CALCULATION
------------------------------------------------------------------------------

Dipole Moment Calculation                       ... on
Quadrupole Moment Calculation                   ... off
Polarizability Calculation                      ... off
GBWName                                         ... orca.gbw
Electron density file                           ... orca.mdcip
The origin for moment calculation is the CENTER OF MASS  = ( 1.889726,  0.000000  0.000000)

-------------
DIPOLE MOMENT
-------------
                                X             Y             Z
Electronic contribution:     -0.00000      -0.00000      -0.00000
Nuclear contribution   :      0.00000       0.00000       0.00000
                        -----------------------------------------
Total Dipole Moment    :     -0.00000      -0.00000      -0.00000
                        -----------------------------------------
Magnitude (a.u.)       :      0.00000
Magnitude (Debye)      :      0.00000



--------------------
Rotational spectrum 
--------------------
 
Rotational constants in cm-1:     0.000000     8.361927     8.361927 
Rotational constants in MHz :     0.000000 250684.265719 250684.265719 

 Dipole components along the rotational axes: 
x,y,z [a.u.] :    -0.000000    -0.000000    -0.000000 
x,y,z [Debye]:    -0.000000    -0.000000    -0.000000 

 
                              **** TRAJECTORY DONE ***

                         SUMMARY OF THE CALCULATED SURFACE

------------------
TRAJECTORY RESULTS
------------------

Column   1: R

The Calculated Surface using the 'Actual Energy'
   0.40000000  -0.97154951
   0.45000000  -1.04638548
   0.50000000  -1.09613005
   0.55000000  -1.12868413
   0.60000000  -1.14919899
   0.65000000  -1.16115212
   0.70000000  -1.16695452
   0.75000000  -1.16831239
   0.80000000  -1.16645429
   0.85000000  -1.16227973
   0.90000000  -1.15645560
   0.95000000  -1.14948447
   1.00000000  -1.14174763
   1.05000000  -1.13353663
   1.10000000  -1.12507547
   1.15000000  -1.11653689
   1.20000000  -1.10805439
   1.25000000  -1.09973119
   1.30000000  -1.09164688
   1.35000000  -1.08386245
   1.40000000  -1.07642395
   1.45000000  -1.06936535
   1.50000000  -1.06271058
   1.55000000  -1.05647512
   1.60000000  -1.05066716
   1.65000000  -1.04528856
   1.70000000  -1.04033551
   1.75000000  -1.03579925
   1.80000000  -1.03166670
   1.85000000  -1.02791855
   1.90000000  -1.02453874
   1.95000000  -1.02150391
   2.00000000  -1.01879069

                        *******************************
                        *   FIT OF THE ACT-ENERGY PES *
                        *******************************
-------------------------------
POTENTIAL ENERGY SURFACE =   0
-------------------------------

Minimum found after 28 iterations
Equilibrium distance and its energy from the interpolated PES:
  Re      =   0.74348 Angstroem  (  1.40497 Bohr)
  E(Re)   =    -1.168340 Eh 
  dE/dR   = 9.789e-09 (1.361e-02 CHEB)
  d2E/dR2 =    0.372004 (   0.403365 CHEB) (   0.483706 NUM)
  d3E/dR3 =   -1.407119 (  27.958396 CHEB)

Spectroscopic constants:
  we =    4434.0 cm**-1 (based on SPLINE)
  we =    4617.1 cm**-1 (based on CHEB)
  we =    5056.0 cm**-1 (based on NUM)

Performing Morse fit ...
Morse-Fit Results:
 Te(adiabatic)   =  646602.8 cm**-1         = 80.169 eV
 d2E/dR**2 (Morse)=  -1214.023026613 
 d3E/dR**3 (Morse)=  52935.644819060 
 d4E/dR**4 (Morse)= -1795250.356951198 
 E0               =      1.777798747 Eh  RMS=5.81e-03
 Re               =   0.26159 Angstroem      =  0.49433 Bohr RMS=2.77e-04)
 De(Morse)        = -78.18933 eV             =-630639.5 cm**-1 RMS=5.80e-03
 D0(Morse)        =      -nan eV
 beta             =  14.53450 au          RMS=2.19e-02
 we               =     -nan cm**-1
 wexe             =  25420.4 cm**-1
 Displacement   =   -0.4819 Angstroem      = -0.91064 Bohr

The Calculated Surface using the SCF energy
   0.40000000  -0.93807819
   0.45000000  -1.01263521
   0.50000000  -1.06211099
   0.55000000  -1.09438263
   0.60000000  -1.11457918
   0.65000000  -1.12615839
   0.70000000  -1.13151519
   0.75000000  -1.13234389
   0.80000000  -1.12986427
   0.85000000  -1.12496783
   0.90000000  -1.11831450
   0.95000000  -1.11039788
   1.00000000  -1.10158999
   1.05000000  -1.09217274
   1.10000000  -1.08236065
   1.15000000  -1.07231745
   1.20000000  -1.06216849
   1.25000000  -1.05200998
   1.30000000  -1.04191586
   1.35000000  -1.03194305
   1.40000000  -1.02213531
   1.45000000  -1.01252614
   1.50000000  -1.00314104
   1.55000000  -0.99399911
   1.60000000  -0.98511424
   1.65000000  -0.97649601
   1.70000000  -0.96815034
   1.75000000  -0.96007995
   1.80000000  -0.95228487
   1.85000000  -0.94476279
   1.90000000  -0.93750951
   1.95000000  -0.93051931
   2.00000000  -0.92378540

                        *******************************
                        *       FIT OF THE SCF PES    *
                        *******************************
-------------------------------
POTENTIAL ENERGY SURFACE =   0
-------------------------------

Minimum found after 14 iterations
Equilibrium distance and its energy from the interpolated PES:
  Re      =   0.73546 Angstroem  (  1.38983 Bohr)
  E(Re)   =    -1.132491 Eh 
  dE/dR   = -2.623e-10 (1.306e-02 CHEB)
  d2E/dR2 =    0.403388 (   0.437913 CHEB) (   0.516959 NUM)
  d3E/dR3 =   -1.397818 (  29.424653 CHEB)

Spectroscopic constants:
  we =    4617.2 cm**-1 (based on SPLINE)
  we =    4810.8 cm**-1 (based on CHEB)
  we =    5226.9 cm**-1 (based on NUM)

Performing Morse fit ...
Morse-Fit Results:
 Te(adiabatic)   = 3542438.6 cm**-1         =439.206 eV
 d2E/dR**2 (Morse)= -12478.817621181 
 d3E/dR**3 (Morse)= 738136.226825194 
 d4E/dR**4 (Morse)= -33959018.850459307 
 E0               =     15.008046763 Eh  RMS=4.65e-02
 Re               =   0.24633 Angstroem      =  0.46549 Bohr RMS=5.48e-04)
 De(Morse)        = -436.72737 eV             =-3522444.1 cm**-1 RMS=4.65e-02
 D0(Morse)        =      -nan eV
 beta             =  19.71705 au          RMS=4.54e-02
 we               =     -nan cm**-1
 wexe             =  46780.7 cm**-1
 Displacement   =   -0.4891 Angstroem      = -0.92434 Bohr

The Calculated Surface using the MDCI energy
   0.40000000  -0.97154951
   0.45000000  -1.04638548
   0.50000000  -1.09613005
   0.55000000  -1.12868413
   0.60000000  -1.14919899
   0.65000000  -1.16115212
   0.70000000  -1.16695452
   0.75000000  -1.16831239
   0.80000000  -1.16645429
   0.85000000  -1.16227973
   0.90000000  -1.15645560
   0.95000000  -1.14948447
   1.00000000  -1.14174763
   1.05000000  -1.13353663
   1.10000000  -1.12507547
   1.15000000  -1.11653689
   1.20000000  -1.10805439
   1.25000000  -1.09973119
   1.30000000  -1.09164688
   1.35000000  -1.08386245
   1.40000000  -1.07642395
   1.45000000  -1.06936535
   1.50000000  -1.06271058
   1.55000000  -1.05647512
   1.60000000  -1.05066716
   1.65000000  -1.04528856
   1.70000000  -1.04033551
   1.75000000  -1.03579925
   1.80000000  -1.03166670
   1.85000000  -1.02791855
   1.90000000  -1.02453874
   1.95000000  -1.02150391
   2.00000000  -1.01879069

                        *******************************
                        *      FIT OF THE MDCI PES    *
                        *******************************
-------------------------------
POTENTIAL ENERGY SURFACE =   0
-------------------------------

Minimum found after 28 iterations
Equilibrium distance and its energy from the interpolated PES:
  Re      =   0.74348 Angstroem  (  1.40497 Bohr)
  E(Re)   =    -1.168340 Eh 
  dE/dR   = 9.789e-09 (1.361e-02 CHEB)
  d2E/dR2 =    0.372004 (   0.403365 CHEB) (   0.483706 NUM)
  d3E/dR3 =   -1.407119 (  27.958396 CHEB)

Spectroscopic constants:
  we =    4434.0 cm**-1 (based on SPLINE)
  we =    4617.1 cm**-1 (based on CHEB)
  we =    5056.0 cm**-1 (based on NUM)

Performing Morse fit ...
Morse-Fit Results:
 Te(adiabatic)   =  646602.8 cm**-1         = 80.169 eV
 d2E/dR**2 (Morse)=  -1214.023026613 
 d3E/dR**3 (Morse)=  52935.644819060 
 d4E/dR**4 (Morse)= -1795250.356951198 
 E0               =      1.777798747 Eh  RMS=5.81e-03
 Re               =   0.26159 Angstroem      =  0.49433 Bohr RMS=2.77e-04)
 De(Morse)        = -78.18933 eV             =-630639.5 cm**-1 RMS=5.80e-03
 D0(Morse)        =      -nan eV
 beta             =  14.53450 au          RMS=2.19e-02
 we               =     -nan cm**-1
 wexe             =  25420.4 cm**-1
 Displacement   =   -0.4819 Angstroem      = -0.91064 Bohr

The Calculated Surface using the MDCI energy minus triple correction
   0.40000000  -0.97154951
   0.45000000  -1.04638548
   0.50000000  -1.09613005
   0.55000000  -1.12868413
   0.60000000  -1.14919899
   0.65000000  -1.16115212
   0.70000000  -1.16695452
   0.75000000  -1.16831239
   0.80000000  -1.16645429
   0.85000000  -1.16227973
   0.90000000  -1.15645560
   0.95000000  -1.14948447
   1.00000000  -1.14174763
   1.05000000  -1.13353663
   1.10000000  -1.12507547
   1.15000000  -1.11653689
   1.20000000  -1.10805439
   1.25000000  -1.09973119
   1.30000000  -1.09164688
   1.35000000  -1.08386245
   1.40000000  -1.07642395
   1.45000000  -1.06936535
   1.50000000  -1.06271058
   1.55000000  -1.05647512
   1.60000000  -1.05066716
   1.65000000  -1.04528856
   1.70000000  -1.04033551
   1.75000000  -1.03579925
   1.80000000  -1.03166670
   1.85000000  -1.02791855
   1.90000000  -1.02453874
   1.95000000  -1.02150391
   2.00000000  -1.01879069

                        *******************************
                        *      FIT OF THE MDCI1 PES   *
                        *******************************
-------------------------------
POTENTIAL ENERGY SURFACE =   0
-------------------------------

Minimum found after 28 iterations
Equilibrium distance and its energy from the interpolated PES:
  Re      =   0.74348 Angstroem  (  1.40497 Bohr)
  E(Re)   =    -1.168340 Eh 
  dE/dR   = 9.789e-09 (1.361e-02 CHEB)
  d2E/dR2 =    0.372004 (   0.403365 CHEB) (   0.483706 NUM)
  d3E/dR3 =   -1.407119 (  27.958396 CHEB)

Spectroscopic constants:
  we =    4434.0 cm**-1 (based on SPLINE)
  we =    4617.1 cm**-1 (based on CHEB)
  we =    5056.0 cm**-1 (based on NUM)

Performing Morse fit ...
Morse-Fit Results:
 Te(adiabatic)   =  646602.8 cm**-1         = 80.169 eV
 d2E/dR**2 (Morse)=  -1214.023026613 
 d3E/dR**3 (Morse)=  52935.644819060 
 d4E/dR**4 (Morse)= -1795250.356951198 
 E0               =      1.777798747 Eh  RMS=5.81e-03
 Re               =   0.26159 Angstroem      =  0.49433 Bohr RMS=2.77e-04)
 De(Morse)        = -78.18933 eV             =-630639.5 cm**-1 RMS=5.80e-03
 D0(Morse)        =      -nan eV
 beta             =  14.53450 au          RMS=2.19e-02
 we               =     -nan cm**-1
 wexe             =  25420.4 cm**-1
 Displacement   =   -0.4819 Angstroem      = -0.91064 Bohr


Timings for individual modules:

Sum of individual times         ...       44.740 sec (=   0.746 min)
GTO integral calculation        ...        7.888 sec (=   0.131 min)  17.6 %
SCF iterations                  ...       21.310 sec (=   0.355 min)  47.6 %
MDCI module                     ...       15.542 sec (=   0.259 min)  34.7 %
                             ****ORCA TERMINATED NORMALLY****
TOTAL RUN TIME: 0 days 0 hours 0 minutes 51 seconds 435 msec
