
                                 *****************
                                 * O   R   C   A *
                                 *****************

           --- An Ab Initio, DFT and Semiempirical electronic structure package ---

                  #######################################################
                  #                        -***-                        #
                  #          Department of theory and spectroscopy      #
                  #               Directorship: Frank Neese             #
                  #        Max Planck Institute fuer Kohlenforschung    #
                  #                Kaiser Wilhelm Platz 1               #
                  #                 D-45470 Muelheim/Ruhr               #
                  #                      Germany                        #
                  #                                                     #
                  #                  All rights reserved                #
                  #                        -***-                        #
                  #######################################################


                         Program Version 4.2.1 -  RELEASE  -


 With contributions from (in alphabetic order):
   Daniel Aravena         : Magnetic Suceptibility
   Michael Atanasov       : Ab Initio Ligand Field Theory (pilot matlab implementation)
   Alexander A. Auer      : GIAO ZORA, VPT2
   Ute Becker             : Parallelization
   Giovanni Bistoni       : ED, misc. LED, open-shell LED, HFLD
   Martin Brehm           : Molecular dynamics
   Dmytro Bykov           : SCF Hessian
   Vijay G. Chilkuri      : MRCI spin determinant printing, contributions to CSF-ICE
   Dipayan Datta          : RHF DLPNO-CCSD density
   Achintya Kumar Dutta   : EOM-CC, STEOM-CC
   Dmitry Ganyushin       : Spin-Orbit,Spin-Spin,Magnetic field MRCI
   Miquel Garcia          : C-PCM Hessian, Gaussian charge scheme
   Yang Guo               : DLPNO-NEVPT2, CIM, IAO-localization
   Andreas Hansen         : Spin unrestricted coupled pair/coupled cluster methods
   Benjamin Helmich-Paris : CASSCF linear response (MC-RPA)
   Lee Huntington         : MR-EOM, pCC
   Robert Izsak           : Overlap fitted RIJCOSX, COSX-SCS-MP3, EOM
   Christian Kollmar      : KDIIS, OOCD, Brueckner-CCSD(T), CCSD density
   Simone Kossmann        : Meta GGA functionals, TD-DFT gradient, OOMP2, MP2 Hessian
   Martin Krupicka        : AUTO-CI
   Lucas Lang             : DCDCAS
   Dagmar Lenk            : GEPOL surface, SMD
   Dimitrios Liakos       : Extrapolation schemes; Compound Job, initial MDCI parallelization
   Dimitrios Manganas     : Further ROCIS development; embedding schemes
   Dimitrios Pantazis     : SARC Basis sets
   Taras Petrenko         : DFT Hessian,TD-DFT gradient, ASA, ECA, R-Raman, ABS, FL, XAS/XES, NRVS
   Peter Pinski           : DLPNO-MP2, DLPNO-MP2 Gradient
   Christoph Reimann      : Effective Core Potentials
   Marius Retegan         : Local ZFS, SOC
   Christoph Riplinger    : Optimizer, TS searches, QM/MM, DLPNO-CCSD(T), (RO)-DLPNO pert. Triples
   Tobias Risthaus        : Range-separated hybrids, TD-DFT gradient, RPA, STAB
   Michael Roemelt        : Original ROCIS implementation
   Masaaki Saitow         : Open-shell DLPNO-CCSD energy and density
   Barbara Sandhoefer     : DKH picture change effects
   Avijit Sen             : IP-ROCIS
   Kantharuban Sivalingam : CASSCF convergence, NEVPT2, FIC-MRCI
   Bernardo de Souza      : ESD, SOC TD-DFT
   Georgi Stoychev        : AutoAux, RI-MP2 NMR
   Willem Van den Heuvel  : Paramagnetic NMR
   Boris Wezisla          : Elementary symmetry handling
   Frank Wennmohs         : Technical directorship


 We gratefully acknowledge several colleagues who have allowed us to
 interface, adapt or use parts of their codes:
   Stefan Grimme, W. Hujo, H. Kruse,             : VdW corrections, initial TS optimization,
                  C. Bannwarth                     DFT functionals, gCP, sTDA/sTD-DF
   Ed Valeev, F. Pavosevic, A. Kumar             : LibInt (2-el integral package), F12 methods
   Garnet Chan, S. Sharma, J. Yang, R. Olivares  : DMRG
   Ulf Ekstrom                                   : XCFun DFT Library
   Mihaly Kallay                                 : mrcc  (arbitrary order and MRCC methods)
   Andreas Klamt, Michael Diedenhofen            : otool_cosmo (COSMO solvation model)
   Jiri Pittner, Ondrej Demel                    : Mk-CCSD
   Frank Weinhold                                : gennbo (NPA and NBO analysis)
   Christopher J. Cramer and Donald G. Truhlar   : smd solvation model
   Lars Goerigk                                  : TD-DFT with DH, B97 family of functionals
   V. Asgeirsson, H. Jonsson                     : NEB implementation
   FAccTs GmbH                                   : IRC, NEB, NEB-TS, Multilevel, MM, QM/MM, CI optimization
   S Lehtola, MJT Oliveira, MAL Marques          : LibXC Library


 Your calculation uses the libint2 library for the computation of 2-el integrals
 For citations please refer to: http://libint.valeyev.net

 Your ORCA version has been built with support for libXC version: 4.2.3
 For citations please refer to: https://tddft.org/programs/libxc/

 This ORCA versions uses:
   CBLAS   interface :  Fast vector & matrix operations
   LAPACKE interface :  Fast linear algebra routines
   SCALAPACK package :  Parallel linear algebra routines


----- Orbital basis set information -----
Your calculation utilizes the basis: aug-cc-pVTZ 
    H, B-Ne : Obtained from the ccRepo (grant-hill.group.shef.ac.uk/ccrepo) Feb. 2017
              R. A. Kendall, T. H. Dunning, Jr., R. J. Harrison, J. Chem. Phys. 96, 6796 (1992)
         He : Obtained from the ccRepo (grant-hill.group.shef.ac.uk/ccrepo) Feb. 2017
              D. E. Woon, T. H. Dunning, Jr., J. Chem. Phys. 100, 2975 (1994)
  Li-Be, Na : Obtained from the ccRepo (grant-hill.group.shef.ac.uk/ccrepo) Feb. 2017
              B. P. Prascher, D. E. Woon, K. A. Peterson, T. H. Dunning, Jr., A. K. Wilson, Theor. Chem. Acc. 128, 69 (2011)
         Mg : Obtained from the Peterson Research Group Website (tyr0.chem.wsu.edu/~kipeters) Feb. 2017
              B. P. Prascher, D. E. Woon, K. A. Peterson, T. H. Dunning, Jr., A. K. Wilson, Theor. Chem. Acc. 128, 69 (2011)
      Al-Ar : Obtained from the ccRepo (grant-hill.group.shef.ac.uk/ccrepo) Feb. 2017
              D. E. Woon, T. H. Dunning, Jr., J. Chem. Phys. 98, 1358 (1993)
      Sc-Zn : Obtained from the ccRepo (grant-hill.group.shef.ac.uk/ccrepo) Feb. 2017
              N. B. Balabanov, K. A. Peterson, J. Chem. Phys. 123, 064107 (2005)
              N. B. Balabanov, K. A. Peterson, J. Chem. Phys. 125, 074110 (2006)
      Ga-Kr : Obtained from the ccRepo (grant-hill.group.shef.ac.uk/ccrepo) Feb. 2017
              A. K. Wilson, D. E. Woon, K. A. Peterson, T. H. Dunning, Jr., J. Chem. Phys. 110, 7667 (1999)
     Ag, Au : Obtained from the Peterson Research Group Website (tyr0.chem.wsu.edu/~kipeters) Feb. 2017
              K. A. Peterson, C. Puzzarini, Theor. Chem. Acc. 114, 283 (2005)

----- AuxJ basis set information -----
Your calculation utilizes the auxiliary basis: def2/J
   F. Weigend, Phys. Chem. Chem. Phys. 8, 1057 (2006).

================================================================================
                                        WARNINGS
                       Please study these warnings very carefully!
================================================================================


WARNING: Geometry Optimization
  ===> : Switching off AutoStart
         For restart on a previous wavefunction, please use MOREAD

INFO   : the flag for use of LIBINT has been found!

================================================================================
                                       INPUT FILE
================================================================================
NAME = orca.inp
|  1> !UKS BLYP aug-cc-pVTZ OPT
|  2> 
|  3> !veryslowconv
|  4> 
|  5> %scf
|  6> 
|  7> maxiter 1800
|  8> 
|  9> end
| 10> 
| 11> 
| 12> 
| 13> %geom
| 14>   Constraints
| 15>     { B 0 4  C } # Bond constraint on C0--F4
| 16>   end
| 17> end
| 18> 
| 19> *xyz 0 1
| 20> C    -1.559613688    0.717994631    -0.105805894
| 21> H    -0.842002689    1.524209413    -0.047850394
| 22> H    -2.265753993    0.791005851    0.709265810
| 23> H    -2.080853752    0.753040517    -1.052054927
| 24> F    -0.102216968    -1.895847960    0.103530461
| 25> **                         ****END OF INPUT****
================================================================================

                       *****************************
                       * Geometry Optimization Run *
                       *****************************

Geometry optimization settings:
Update method            Update   .... BFGS
Choice of coordinates    CoordSys .... Z-matrix Internals
Initial Hessian          InHess   .... Almoef's Model

Convergence Tolerances:
Energy Change            TolE     ....  5.0000e-06 Eh
Max. Gradient            TolMAXG  ....  3.0000e-04 Eh/bohr
RMS Gradient             TolRMSG  ....  1.0000e-04 Eh/bohr
Max. Displacement        TolMAXD  ....  4.0000e-03 bohr
RMS Displacement         TolRMSD  ....  2.0000e-03 bohr
Strict Convergence                ....  False
------------------------------------------------------------------------------
                        ORCA OPTIMIZATION COORDINATE SETUP
------------------------------------------------------------------------------

The optimization will be done in new redundant internal coordinates
Making redundant internal coordinates   ...  (new redundants) done
Evaluating the initial hessian          ...  (Almloef) done
Evaluating the coordinates              ...  done
Calculating the B-matrix                .... done
Calculating the G-matrix                .... done
Diagonalizing the G-matrix              .... done
Imposing constraints:
 Iter   0:  RMS(Cart)=    0.0000000000 RMS(Int)=    0.0000000000
CONVERGED
The first mode is                       ....    4
The number of degrees of freedom        ....    9
Storing new coordinates                 .... done

    -----------------------------------------------------------------
                    Redundant Internal Coordinates


    -----------------------------------------------------------------
         Definition                    Initial Value    Approx d2E/dq
    -----------------------------------------------------------------
      1. B(H   1,C   0)                  1.0809         0.372366   
      2. B(H   2,C   0)                  1.0809         0.372366   
      3. B(H   3,C   0)                  1.0809         0.372366   
      4. B(F   4,H   3)                  3.5024         0.000042   
      5. B(F   4,H   1)                  3.5024         0.000042   
      6. B(F   4,C   0)                  3.0000         0.001404 C 
      7. B(F   4,H   2)                  3.5024         0.000042   
      8. A(H   2,C   0,H   3)          110.0548         0.293923   
      9. A(H   1,C   0,F   4)          108.8812         0.155076   
     10. A(H   2,C   0,F   4)          108.8812         0.155076   
     11. A(H   3,C   0,F   4)          108.8812         0.155076   
     12. A(H   1,C   0,H   2)          110.0548         0.293923   
     13. A(H   1,C   0,H   3)          110.0548         0.293923   
    -----------------------------------------------------------------

Number of atoms                         .... 5
Number of degrees of freedom            .... 13

         *************************************************************
         *                GEOMETRY OPTIMIZATION CYCLE   1            *
         *************************************************************
---------------------------------
CARTESIAN COORDINATES (ANGSTROEM)
---------------------------------
  C     -1.559614    0.717995   -0.105806
  H     -0.842003    1.524209   -0.047850
  H     -2.265754    0.791006    0.709266
  H     -2.080854    0.753041   -1.052055
  F     -0.102217   -1.895848    0.103530

----------------------------
CARTESIAN COORDINATES (A.U.)
----------------------------
  NO LB      ZA    FRAG     MASS         X           Y           Z
   0 C     6.0000    0    12.011   -2.947243    1.356813   -0.199944
   1 H     1.0000    0     1.008   -1.591154    2.880338   -0.090424
   2 H     1.0000    0     1.008   -4.281655    1.494784    1.340318
   3 H     1.0000    0     1.008   -3.932244    1.423040   -1.988096
   4 F     9.0000    0    18.998   -0.193162   -3.582633    0.195644

--------------------------------
INTERNAL COORDINATES (ANGSTROEM)
--------------------------------
 C      0   0   0     0.000000000000     0.00000000     0.00000000
 H      1   0   0     1.080882352794     0.00000000     0.00000000
 H      1   2   0     1.080882348479   110.05475732     0.00000000
 H      1   2   3     1.080882348314   110.05475684   121.45845560
 F      1   2   3     2.999999999920   108.88118577   240.72922824

---------------------------
INTERNAL COORDINATES (A.U.)
---------------------------
 C      0   0   0     0.000000000000     0.00000000     0.00000000
 H      1   0   0     2.042571629769     0.00000000     0.00000000
 H      1   2   0     2.042571621614   110.05475732     0.00000000
 H      1   2   3     2.042571621304   110.05475684   121.45845560
 F      1   2   3     5.669178401612   108.88118577   240.72922824

---------------------
BASIS SET INFORMATION
---------------------
There are 3 groups of distinct atoms

 Group   1 Type C   : 19s6p3d2f contracted to 5s4p3d2f pattern {88111/3111/111/11}
 Group   2 Type H   : 6s3p2d contracted to 4s3p2d pattern {3111/111/11}
 Group   3 Type F   : 19s6p3d2f contracted to 5s4p3d2f pattern {88111/3111/111/11}

Atom   0C    basis set group =>   1
Atom   1H    basis set group =>   2
Atom   2H    basis set group =>   2
Atom   3H    basis set group =>   2
Atom   4F    basis set group =>   3
---------------------------------
AUXILIARY/J BASIS SET INFORMATION
---------------------------------
There are 3 groups of distinct atoms

 Group   1 Type C   : 12s5p4d2f1g contracted to 6s4p3d1f1g pattern {711111/2111/211/2/1}
 Group   2 Type H   : 5s2p1d contracted to 3s1p1d pattern {311/2/1}
 Group   3 Type F   : 12s5p4d2f1g contracted to 6s4p3d1f1g pattern {711111/2111/211/2/1}

Atom   0C    basis set group =>   1
Atom   1H    basis set group =>   2
Atom   2H    basis set group =>   2
Atom   3H    basis set group =>   2
Atom   4F    basis set group =>   3
------------------------------------------------------------------------------
                           ORCA GTO INTEGRAL CALCULATION
                           -- RI-GTO INTEGRALS CHOSEN --
------------------------------------------------------------------------------

                         BASIS SET STATISTICS AND STARTUP INFO

Gaussian basis set:
 # of primitive gaussian shells          ...   93
 # of primitive gaussian functions       ...  207
 # of contracted shells                  ...   55
 # of contracted basis functions         ...  161
 Highest angular momentum                ...    3
 Maximum contraction depth               ...    8
Auxiliary gaussian basis set:
 # of primitive gaussian shells          ...   72
 # of primitive gaussian functions       ...  188
 # of contracted shells                  ...   45
 # of contracted aux-basis functions     ...  131
 Highest angular momentum                ...    4
 Maximum contraction depth               ...    7
Ratio of auxiliary to basis functions    ...  0.81
Integral package used                  ... LIBINT
 One Electron integrals                  ... done
 Ordering auxiliary basis shells         ... done
 Integral threshhold             Thresh  ...  2.500e-11
 Primitive cut-off               TCut    ...  2.500e-12
 Pre-screening matrix                    ... done
 Shell pair data                         ... 
 Ordering of the shell pairs             ... done (   0.000 sec) 1508 of 1540 pairs
 Determination of significant pairs      ... done (   0.000 sec)
 Creation of shell pair data             ... done (   0.000 sec)
 Storage of shell pair data              ... done (   0.000 sec)
 Shell pair data done in (   0.001 sec)
 Computing two index integrals           ... done
 Cholesky decomposition of the V-matrix  ... done


Timings:
 Total evaluation time                   ...   0.208 sec (  0.003 min)
 One electron matrix time                ...   0.009 sec (  0.000 min) =  4.4%
 Schwartz matrix evaluation time         ...   0.093 sec (  0.002 min) = 44.6%
 Two index repulsion integral time       ...   0.000 sec (  0.000 min) =  0.2%
 Cholesky decomposition of V             ...   0.079 sec (  0.001 min) = 37.9%
 Three index repulsion integral time     ...   0.000 sec (  0.000 min) =  0.0%

-------------------------------------------------------------------------------
                                 ORCA SCF
-------------------------------------------------------------------------------

------------
SCF SETTINGS
------------
Hamiltonian:
 Density Functional     Method          .... DFT(GTOs)
 Exchange Functional    Exchange        .... B88
   X-Alpha parameter    XAlpha          ....  0.666667
   Becke's b parameter  XBeta           ....  0.004200
 Correlation Functional Correlation     .... LYP
 Gradients option       PostSCFGGA      .... off
   Density functional embedding theory  .... OFF
   NL short-range parameter             ....  4.000000
 RI-approximation to the Coulomb term is turned on
   Number of auxiliary basis functions  .... 131


General Settings:
 Integral files         IntName         .... orca
 Hartree-Fock type      HFTyp           .... UHF
 Total Charge           Charge          ....    0
 Multiplicity           Mult            ....    1
 Number of Electrons    NEL             ....   18
 Basis Dimension        Dim             ....  161
 Nuclear Repulsion      ENuc            ....     23.3132047144 Eh

Convergence Acceleration:
 DIIS                   CNVDIIS         .... on
   Start iteration      DIISMaxIt       ....     0
   Startup error        DIISStart       ....  0.200000
   # of expansion vecs  DIISMaxEq       ....     5
   Bias factor          DIISBfac        ....   1.050
   Max. coefficient     DIISMaxC        ....  10.000
 Newton-Raphson         CNVNR           .... off
 SOSCF                  CNVSOSCF        .... off
 Level Shifting         CNVShift        .... on
   Level shift para.    LevelShift      ....    0.2500
   Turn off err/grad.   ShiftErr        ....    0.0000
 Zerner damping         CNVZerner       .... off
 Static damping         CNVDamp         .... on
   Fraction old density DampFac         ....    0.9200
   Max. Damping (<1)    DampMax         ....    0.9800
   Min. Damping (>=0)   DampMin         ....    0.0000
   Turn off err/grad.   DampErr         ....    0.0030
 Fernandez-Rico         CNVRico         .... off

SCF Procedure:
 Maximum # iterations   MaxIter         ....  1800
 SCF integral mode      SCFMode         .... Direct
   Integral package                     .... LIBINT
 Reset frequency        DirectResetFreq ....    20
 Integral Threshold     Thresh          ....  2.500e-11 Eh
 Primitive CutOff       TCut            ....  2.500e-12 Eh

Convergence Tolerance:
 Convergence Check Mode ConvCheckMode   .... Total+1el-Energy
 Convergence forced     ConvForced      .... 0
 Energy Change          TolE            ....  1.000e-08 Eh
 1-El. energy change                    ....  1.000e-05 Eh
 DIIS Error             TolErr          ....  5.000e-07


Diagonalization of the overlap matrix:
Smallest eigenvalue                        ... 1.239e-04
Time for diagonalization                   ...    0.097 sec
Threshold for overlap eigenvalues          ... 1.000e-08
Number of eigenvalues below threshold      ... 0
Time for construction of square roots      ...    0.002 sec
Total time needed                          ...    0.099 sec

-------------------
DFT GRID GENERATION
-------------------

General Integration Accuracy     IntAcc      ...  4.340
Radial Grid Type                 RadialGrid  ... Gauss-Chebyshev
Angular Grid (max. acc.)         AngularGrid ... Lebedev-110
Angular grid pruning method      GridPruning ... 3 (G Style)
Weight generation scheme         WeightScheme... Becke
Basis function cutoff            BFCut       ...    1.0000e-11
Integration weight cutoff        WCut        ...    1.0000e-14
Grids for H and He will be reduced by one unit

# of grid points (after initial pruning)     ...   5778 (   0.0 sec)
# of grid points (after weights+screening)   ...   5666 (   0.0 sec)
nearest neighbour list constructed           ...    0.0 sec
Grid point re-assignment to atoms done       ...    0.0 sec
Grid point division into batches done        ...    0.0 sec
Reduced shell lists constructed in    0.0 sec

Total number of grid points                  ...     5666
Total number of batches                      ...       92
Average number of points per batch           ...       61
Average number of grid points per atom       ...     1133
Average number of shells per batch           ...    46.18 (83.97%)
Average number of basis functions per batch  ...   133.06 (82.65%)
Average number of large shells per batch     ...    41.00 (88.78%)
Average number of large basis fcns per batch ...   117.04 (87.96%)
Maximum spatial batch extension              ...  21.59, 23.60, 22.48 au
Average spatial batch extension              ...   5.55,  5.04,  4.70 au

Time for grid setup =    0.048 sec

------------------------------
INITIAL GUESS: MODEL POTENTIAL
------------------------------
Loading Hartree-Fock densities                     ... done
Calculating cut-offs                               ... done
Setting up the integral package                    ... done
Initializing the effective Hamiltonian             ... done
Starting the Coulomb interaction                   ... done (   0.0 sec)
Reading the grid                                   ... done
Mapping shells                                     ... done
Starting the XC term evaluation                    ... done (   0.1 sec)
  promolecular density results
     # of electrons  =     18.000292155
     EX              =    -15.945185381
     EC              =     -0.590261820
     EX+EC           =    -16.535447201
Transforming the Hamiltonian                       ... done (   0.0 sec)
Diagonalizing the Hamiltonian                      ... done (   0.0 sec)
Back transforming the eigenvectors                 ... done (   0.0 sec)
Now organizing SCF variables                       ... done
                      ------------------
                      INITIAL GUESS DONE (   0.2 sec)
                      ------------------
--------------
SCF ITERATIONS
--------------
ITER       Energy         Delta-E        Max-DP      RMS-DP      [F,P]     Damp
               ***  Starting incremental Fock matrix formation  ***
  0   -139.3696590361   0.000000000000 0.01632308  0.00032905  0.4123650 0.9200
  1   -139.4670980584  -0.097439022293 0.01502824  0.00031372  0.2572955 0.9200
                               ***Turning on DIIS***
  2   -139.5089870739  -0.041889015474 0.01365922  0.00025951  0.1272123 0.9200
  3   -139.5148135457  -0.005826471838 0.01241732  0.00021533  0.0621967 0.9200
  4   -139.5060794546   0.008734091171 0.01137024  0.00019167  0.0760099 0.9200
  5   -139.4884033862   0.017676068330 0.01043492  0.00017517  0.1056492 0.9200
  6   -139.4639767442   0.024426642002 0.00958243  0.00016126  0.1512132 0.9200
  7   -139.4343627792   0.029613965087 0.00880049  0.00014864  0.1934653 0.9200
  8   -139.4009048021   0.033457977028 0.00808249  0.00013668  0.2330834 0.9200
  9   -139.3646581473   0.036246654808 0.00741416  0.00012556  0.2697720 0.9200
 10   -139.3269759494   0.037682197940 0.00677923  0.00011517  0.3030147 0.9200
 11   -139.2895387972   0.037437152225 0.00615273  0.00010559  0.3317003 0.9200
 12   -139.2541769161   0.035361881071 0.00544476  0.00009721  0.3545590 0.9200
 13   -139.2231753090   0.031001607061 0.00392293  0.00009226  0.3700684 0.9200
 14   -139.2045349005   0.018640408483 0.00539591  0.00013957  0.3734336 0.9200
 15   -139.2582439712  -0.053709070675 0.01150446  0.00018951  0.3275300 0.9200
 16   -139.3415171959  -0.083273224731 0.01070271  0.00017021  0.2420587 0.9200
 17   -139.4052115191  -0.063694323196 0.00920983  0.00015115  0.1770776 0.9200
 18   -139.4516151013  -0.046403582184 0.00808081  0.00013687  0.1275910 0.9200
 19   -139.4853764769  -0.033761375611 0.00720966  0.00012506  0.0869279 0.9200
               *** Restarting incremental Fock matrix formation ***
                                   *** Resetting DIIS ***
 20   -139.5097017526  -0.024325275648 0.00715968  0.00011841  0.0521388 0.9200
 21   -139.5268219140  -0.017120161458 0.00609492  0.00010634  0.0206343 0.9200
 22   -139.5378947916  -0.011072877527 0.00541216  0.00009736  0.0317148 0.9200
 23   -139.5446588453  -0.006764053689 0.00493090  0.00008957  0.0468688 0.9200
 24   -139.5481690710  -0.003510225731 0.00453575  0.00008253  0.0642191 0.9200
 25   -139.5491500494  -0.000980978460 0.00418326  0.00007606  0.0840705 0.9200
 26   -139.5481547816   0.000995267826 0.00385111  0.00007009  0.1023548 0.9200
 27   -139.5456536561   0.002501125535 0.00351757  0.00006458  0.1191435 0.9200
 28   -139.5421304832   0.003523172881 0.00315416  0.00005965  0.1341247 0.9200
 29   -139.5381769081   0.003953575086 0.00289815  0.00005504  0.1465481 0.9200
 30   -139.5337765427   0.004400365461 0.00258369  0.00005117  0.1578106 0.9200
 31   -139.5295267758   0.004249766886 0.00223608  0.00004852  0.1666426 0.9200
 32   -139.5260061695   0.003520606245 0.00206185  0.00004843  0.1721456 0.9200
 33   -139.5239624282   0.002043741288 0.00217100  0.00005430  0.1730343 0.9200
 34   -139.5246082790  -0.000645850750 0.00316715  0.00007879  0.1670345 0.9200
 35   -139.5312792584  -0.006670979376 0.00861432  0.00017252  0.1468240 0.9200
 36   -139.5535049812  -0.022225722808 0.00772949  0.00015620  0.0889591 0.9200
 37   -139.5668184283  -0.013313447157 0.00642365  0.00013454  0.0492870 0.9200
 38   -139.5733690083  -0.006550580003 0.00509921  0.00011225  0.0246196 0.9200
 39   -139.5761400850  -0.002771076629 0.00391733  0.00009224  0.0245484 0.9200
               *** Restarting incremental Fock matrix formation ***
                                   *** Resetting DIIS ***
 40   -139.5772234256  -0.001083340648 0.00264425  0.00007214  0.0241920 0.9200
 41   -139.5779855111  -0.000762085520 0.00226699  0.00005691  0.0235291 0.9200
 42   -139.5789598349  -0.000974323735 0.00192339  0.00004546  0.0231454 0.9200
 43   -139.5802391649  -0.001279330040 0.00158456  0.00003724  0.0220250 0.9200
 44   -139.5817344400  -0.001495275085 0.00129292  0.00003220  0.0207878 0.9200
 45   -139.5832410763  -0.001506636328 0.00109741  0.00002920  0.0195260 0.9200
 46   -139.5845899814  -0.001348905106 0.00098825  0.00002671  0.0180050 0.9200
 47   -139.5857475301  -0.001157548668 0.00090425  0.00002448  0.0166726 0.9200
 48   -139.5867405815  -0.000993051396 0.00083252  0.00002249  0.0154866 0.9200
 49   -139.5875941541  -0.000853572601 0.00076840  0.00002069  0.0144037 0.9200
 50   -139.5883310699  -0.000736915783 0.00070973  0.00001905  0.0134087 0.9200
 51   -139.5889707877  -0.000639717839 0.00065657  0.00001755  0.0124942 0.9200
 52   -139.5895298388  -0.000559051084 0.00060953  0.00001620  0.0116546 0.9200
 53   -139.5900231032  -0.000493264414 0.00056942  0.00001498  0.0114295 0.9200
 54   -139.5904648532  -0.000441750031 0.00053775  0.00001394  0.0128217 0.9200
 55   -139.5908699667  -0.000405113427 0.00051745  0.00001314  0.0142380 0.9200
 56   -139.5912557603  -0.000385793632 0.00051545  0.00001286  0.0153976 0.9200
 57   -139.5916456417  -0.000389881398 0.00055372  0.00001423  0.0158376 0.9200
 58   -139.5920787826  -0.000433140942 0.00075664  0.00001972  0.0148808 0.9200
 59   -139.5925768752  -0.000498092527 0.00065241  0.00001831  0.0112703 0.9200
               *** Restarting incremental Fock matrix formation ***
                                   *** Resetting DIIS ***
 60   -139.5929912298  -0.000414354651 0.00083179  0.00002065  0.0081244 0.9200
 61   -139.5933484612  -0.000357231408 0.00064166  0.00001746  0.0069007 0.9200
 62   -139.5936256957  -0.000277234523 0.00049181  0.00001441  0.0065791 0.9200
 63   -139.5938595203  -0.000233824513 0.00042061  0.00001180  0.0062497 0.9200
 64   -139.5940706722  -0.000211151894 0.00035706  0.00000964  0.0059177 0.9200
 65   -139.5942694616  -0.000198789467 0.00030026  0.00000786  0.0057360 0.9200
 66   -139.5944609112  -0.000191449610 0.00024587  0.00000639  0.0056877 0.9200
 67   -139.5946474834  -0.000186572162 0.00018501  0.00000537  0.0052659 0.9200
 68   -139.5948304189  -0.000182935469 0.00016846  0.00000494  0.0045814 0.9200
 69   -139.5950000462  -0.000169627381 0.00015255  0.00000448  0.0041893 0.9200
 70   -139.5951517638  -0.000151717534 0.00013385  0.00000407  0.0038424 0.9200
 71   -139.5952880365  -0.000136272767 0.00012367  0.00000371  0.0035356 0.9200
 72   -139.5954111465  -0.000123109937 0.00011542  0.00000341  0.0032593 0.9200
 73   -139.5955229954  -0.000111848910 0.00011260  0.00000317  0.0030088 0.9200
 74   -139.5956251528  -0.000102157425 0.00138776  0.00003746  0.0027815 0.0000
 75   -139.5967837269  -0.001158574108 0.00033409  0.00000707  0.0029016 0.0000
 76   -139.5967960609  -0.000012333966 0.00015188  0.00000348  0.0005397 0.0000
 77   -139.5967970783  -0.000001017384 0.00005677  0.00000124  0.0001345 0.0000
 78   -139.5967971631  -0.000000084799 0.00002359  0.00000068  0.0001325 0.0000
 79   -139.5967972120  -0.000000048957 0.00002090  0.00000049  0.0000443 0.0000
               *** Restarting incremental Fock matrix formation ***
                                   *** Resetting DIIS ***
 80   -139.5967972169  -0.000000004909 0.00001883  0.00000048  0.0000399 0.0000
 81   -139.5967972330  -0.000000016059 0.00001810  0.00000041  0.0000637 0.0000
 82   -139.5967972518  -0.000000018796 0.00001636  0.00000036  0.0000358 0.0000
 83   -139.5967972652  -0.000000013421 0.00001239  0.00000027  0.0000308 0.0000
 84   -139.5967972756  -0.000000010361 0.00001002  0.00000022  0.0000282 0.0000
                 **** Energy Check signals convergence ****

               *****************************************************
               *                     SUCCESS                       *
               *           SCF CONVERGED AFTER  85 CYCLES          *
               *****************************************************

Setting up the final grid:

General Integration Accuracy     IntAcc      ...  4.670
Radial Grid Type                 RadialGrid  ... Gauss-Chebyshev
Angular Grid (max. acc.)         AngularGrid ... Lebedev-302
Angular grid pruning method      GridPruning ... 3 (G Style)
Weight generation scheme         WeightScheme... Becke
Basis function cutoff            BFCut       ...    1.0000e-11
Integration weight cutoff        WCut        ...    1.0000e-14
Grids for H and He will be reduced by one unit

# of grid points (after initial pruning)     ...  22666 (   0.0 sec)
# of grid points (after weights+screening)   ...  22275 (   0.0 sec)
nearest neighbour list constructed           ...    0.0 sec
Grid point re-assignment to atoms done       ...    0.0 sec
Grid point division into batches done        ...    0.1 sec
Reduced shell lists constructed in    0.2 sec

Total number of grid points                  ...    22275
Total number of batches                      ...      350
Average number of points per batch           ...       63
Average number of grid points per atom       ...     4455
Average number of shells per batch           ...    43.00 (78.19%)
Average number of basis functions per batch  ...   122.52 (76.10%)
Average number of large shells per batch     ...    37.76 (87.82%)
Average number of large basis fcns per batch ...   106.55 (86.96%)
Maximum spatial batch extension              ...  18.86, 16.77, 20.64 au
Average spatial batch extension              ...   3.32,  3.23,  3.26 au

Final grid set up in    0.2 sec
Final integration                            ... done (   0.5 sec)
Change in XC energy                          ...    -0.000076985
Integrated number of electrons               ...    17.999991822
Previous integrated no of electrons          ...    18.001587374

----------------
TOTAL SCF ENERGY
----------------

Total Energy       :         -139.59687427 Eh           -3798.62407 eV

Components:
Nuclear Repulsion  :           23.31320471 Eh             634.38455 eV
Electronic Energy  :         -162.91007898 Eh           -4433.00862 eV
One Electron Energy:         -238.57827351 Eh           -6492.04487 eV
Two Electron Energy:           75.66819453 Eh            2059.03625 eV

Virial components:
Potential Energy   :         -278.35593842 Eh           -7574.45016 eV
Kinetic Energy     :          138.75906416 Eh            3775.82609 eV
Virial Ratio       :            2.00603788


DFT components:
N(Alpha)           :        8.999995911031 electrons
N(Beta)            :        8.999995911031 electrons
N(Total)           :       17.999991822063 electrons
E(X)               :      -16.171348218529 Eh       
E(C)               :       -0.596110795683 Eh       
E(XC)              :      -16.767459014212 Eh       
DFET-embed. en.    :        0.000000000000 Eh       

---------------
SCF CONVERGENCE
---------------

  Last Energy change         ...   -5.6090e-09  Tolerance :   1.0000e-08
  Last MAX-Density change    ...    1.1442e-05  Tolerance :   1.0000e-07
  Last RMS-Density change    ...    2.7049e-07  Tolerance :   5.0000e-09
  Last DIIS Error            ...    2.5533e-05  Tolerance :   5.0000e-07

             **** THE GBW FILE WAS UPDATED (orca.gbw) ****
             **** DENSITY FILE WAS UPDATED (orca.scfp) ****
             **** ENERGY FILE WAS UPDATED (orca.en.tmp) ****
----------------------
UHF SPIN CONTAMINATION
----------------------

Warning: in a DFT calculation there is little theoretical justification to 
         calculate <S**2> as in Hartree-Fock theory. We will do it anyways
         but you should keep in mind that the values have only limited relevance

Expectation value of <S**2>     :     0.000000
Ideal value S*(S+1) for S=0.0   :     0.000000
Deviation                       :     0.000000

             **** THE GBW FILE WAS UPDATED (orca.gbw) ****
             **** DENSITY FILE WAS UPDATED (orca.scfp) ****
----------------
ORBITAL ENERGIES
----------------
                 SPIN UP ORBITALS
  NO   OCC          E(Eh)            E(eV) 
   0   1.0000     -24.217869      -659.0017 
   1   1.0000     -10.045386      -273.3488 
   2   1.0000      -0.942045       -25.6344 
   3   1.0000      -0.697867       -18.9899 
   4   1.0000      -0.440940       -11.9986 
   5   1.0000      -0.440747       -11.9933 
   6   1.0000      -0.289648        -7.8817 
   7   1.0000      -0.257780        -7.0146 
   8   1.0000      -0.257299        -7.0015 
   9   0.0000      -0.251654        -6.8478 
  10   0.0000      -0.039542        -1.0760 
  11   0.0000       0.002610         0.0710 
  12   0.0000       0.002625         0.0714 
  13   0.0000       0.032471         0.8836 
  14   0.0000       0.057872         1.5748 
  15   0.0000       0.060802         1.6545 
  16   0.0000       0.061399         1.6707 
  17   0.0000       0.080233         2.1832 
  18   0.0000       0.081044         2.2053 
  19   0.0000       0.113546         3.0897 
  20   0.0000       0.114938         3.1276 
  21   0.0000       0.116468         3.1693 
  22   0.0000       0.172951         4.7062 
  23   0.0000       0.196660         5.3514 
  24   0.0000       0.197341         5.3699 
  25   0.0000       0.217586         5.9208 
  26   0.0000       0.233976         6.3668 
  27   0.0000       0.235667         6.4128 
  28   0.0000       0.250370         6.8129 
  29   0.0000       0.261440         7.1141 
  30   0.0000       0.272812         7.4236 
  31   0.0000       0.274399         7.4668 
  32   0.0000       0.283102         7.7036 
  33   0.0000       0.306981         8.3534 
  34   0.0000       0.308237         8.3876 
  35   0.0000       0.324250         8.8233 
  36   0.0000       0.344574         9.3763 
  37   0.0000       0.345926         9.4131 
  38   0.0000       0.460773        12.5383 
  39   0.0000       0.464396        12.6369 
  40   0.0000       0.477911        13.0046 
  41   0.0000       0.539389        14.6775 
  42   0.0000       0.625731        17.0270 
  43   0.0000       0.627094        17.0641 
  44   0.0000       0.633054        17.2263 
  45   0.0000       0.635558        17.2944 
  46   0.0000       0.656932        17.8760 
  47   0.0000       0.691156        18.8073 
  48   0.0000       0.724875        19.7249 
  49   0.0000       0.726581        19.7713 
  50   0.0000       0.777657        21.1611 
  51   0.0000       0.792285        21.5592 
  52   0.0000       0.805811        21.9272 
  53   0.0000       0.806962        21.9586 
  54   0.0000       0.810630        22.0584 
  55   0.0000       0.811857        22.0917 
  56   0.0000       0.839735        22.8503 
  57   0.0000       0.853398        23.2221 
  58   0.0000       0.878005        23.8917 
  59   0.0000       0.894768        24.3479 
  60   0.0000       0.904547        24.6140 
  61   0.0000       0.906276        24.6610 
  62   0.0000       0.937792        25.5186 
  63   0.0000       0.941991        25.6329 
  64   0.0000       0.944240        25.6941 
  65   0.0000       0.971203        26.4278 
  66   0.0000       0.972913        26.4743 
  67   0.0000       1.053904        28.6782 
  68   0.0000       1.055848        28.7311 
  69   0.0000       1.094593        29.7854 
  70   0.0000       1.204158        32.7668 
  71   0.0000       1.210632        32.9430 
  72   0.0000       1.245266        33.8854 
  73   0.0000       1.264661        34.4132 
  74   0.0000       1.302724        35.4489 
  75   0.0000       1.304061        35.4853 
  76   0.0000       1.338830        36.4314 
  77   0.0000       1.341617        36.5073 
  78   0.0000       1.358077        36.9552 
  79   0.0000       1.441064        39.2133 
  80   0.0000       1.529973        41.6327 
  81   0.0000       1.530451        41.6457 
  82   0.0000       1.598610        43.5004 
  83   0.0000       1.652748        44.9736 
  84   0.0000       1.659672        45.1620 
  85   0.0000       1.704005        46.3683 
  86   0.0000       1.706139        46.4264 
  87   0.0000       1.862837        50.6904 
  88   0.0000       1.864186        50.7271 
  89   0.0000       1.920414        52.2571 
  90   0.0000       2.481013        67.5118 
  91   0.0000       2.529933        68.8430 
  92   0.0000       2.547439        69.3193 
  93   0.0000       2.548642        69.3521 
  94   0.0000       2.574076        70.0442 
  95   0.0000       2.574587        70.0581 
  96   0.0000       2.605872        70.9094 
  97   0.0000       2.608766        70.9881 
  98   0.0000       2.633893        71.6719 
  99   0.0000       2.657353        72.3102 
 100   0.0000       2.659085        72.3574 
 101   0.0000       2.661140        72.4133 
 102   0.0000       2.664116        72.4943 
 103   0.0000       2.699730        73.4634 
 104   0.0000       2.701438        73.5099 
 105   0.0000       2.856573        77.7313 
 106   0.0000       2.986129        81.2567 
 107   0.0000       2.987885        81.3045 
 108   0.0000       3.074122        83.6511 
 109   0.0000       3.079482        83.7970 
 110   0.0000       3.111793        84.6762 
 111   0.0000       3.166839        86.1741 
 112   0.0000       3.179529        86.5194 
 113   0.0000       3.180124        86.5356 
 114   0.0000       3.301708        89.8440 
 115   0.0000       3.353998        91.2669 
 116   0.0000       3.354344        91.2764 
 117   0.0000       3.509179        95.4896 
 118   0.0000       3.511576        95.5548 
 119   0.0000       3.588127        97.6379 
 120   0.0000       3.615710        98.3885 
 121   0.0000       3.677745       100.0765 
 122   0.0000       3.679001       100.1107 
 123   0.0000       3.938901       107.1830 
 124   0.0000       3.961851       107.8074 
 125   0.0000       3.963880       107.8627 
 126   0.0000       4.240487       115.3895 
 127   0.0000       4.241119       115.4067 
 128   0.0000       4.242378       115.4410 
 129   0.0000       4.397851       119.6716 
 130   0.0000       4.399691       119.7217 
 131   0.0000       4.423646       120.3735 
 132   0.0000       4.615279       125.5881 
 133   0.0000       4.642959       126.3413 
 134   0.0000       4.643197       126.3478 
 135   0.0000       4.663274       126.8941 
 136   0.0000       4.665542       126.9559 
 137   0.0000       4.776572       129.9771 
 138   0.0000       4.888592       133.0253 
 139   0.0000       4.994848       135.9167 
 140   0.0000       4.998345       136.0119 
 141   0.0000       5.160866       140.4343 
 142   0.0000       5.323303       144.8544 
 143   0.0000       5.539713       150.7433 
 144   0.0000       5.542369       150.8155 
 145   0.0000       5.982393       162.7892 
 146   0.0000       5.985069       162.8620 
 147   0.0000       8.238393       224.1781 
 148   0.0000       8.239136       224.1983 
 149   0.0000       8.248474       224.4524 
 150   0.0000       8.249078       224.4688 
 151   0.0000       8.249461       224.4792 
 152   0.0000       8.249645       224.4843 
 153   0.0000       8.283087       225.3942 
 154   0.0000       8.623645       234.6613 
 155   0.0000       8.623865       234.6673 
 156   0.0000       8.669180       235.9004 
 157   0.0000       8.669745       235.9157 
 158   0.0000       8.729529       237.5425 
 159   0.0000      10.115838       275.2660 
 160   0.0000      15.431339       419.9081 

                 SPIN DOWN ORBITALS
  NO   OCC          E(Eh)            E(eV) 
   0   1.0000     -24.217869      -659.0017 
   1   1.0000     -10.045386      -273.3488 
   2   1.0000      -0.942045       -25.6344 
   3   1.0000      -0.697867       -18.9899 
   4   1.0000      -0.440940       -11.9986 
   5   1.0000      -0.440747       -11.9933 
   6   1.0000      -0.289648        -7.8817 
   7   1.0000      -0.257780        -7.0146 
   8   1.0000      -0.257299        -7.0015 
   9   0.0000      -0.251654        -6.8478 
  10   0.0000      -0.039542        -1.0760 
  11   0.0000       0.002610         0.0710 
  12   0.0000       0.002625         0.0714 
  13   0.0000       0.032471         0.8836 
  14   0.0000       0.057872         1.5748 
  15   0.0000       0.060802         1.6545 
  16   0.0000       0.061399         1.6707 
  17   0.0000       0.080233         2.1832 
  18   0.0000       0.081044         2.2053 
  19   0.0000       0.113546         3.0897 
  20   0.0000       0.114938         3.1276 
  21   0.0000       0.116468         3.1693 
  22   0.0000       0.172951         4.7062 
  23   0.0000       0.196660         5.3514 
  24   0.0000       0.197341         5.3699 
  25   0.0000       0.217586         5.9208 
  26   0.0000       0.233976         6.3668 
  27   0.0000       0.235667         6.4128 
  28   0.0000       0.250370         6.8129 
  29   0.0000       0.261440         7.1141 
  30   0.0000       0.272812         7.4236 
  31   0.0000       0.274399         7.4668 
  32   0.0000       0.283102         7.7036 
  33   0.0000       0.306981         8.3534 
  34   0.0000       0.308237         8.3876 
  35   0.0000       0.324250         8.8233 
  36   0.0000       0.344574         9.3763 
  37   0.0000       0.345926         9.4131 
  38   0.0000       0.460773        12.5383 
  39   0.0000       0.464396        12.6369 
  40   0.0000       0.477911        13.0046 
  41   0.0000       0.539389        14.6775 
  42   0.0000       0.625731        17.0270 
  43   0.0000       0.627094        17.0641 
  44   0.0000       0.633054        17.2263 
  45   0.0000       0.635558        17.2944 
  46   0.0000       0.656932        17.8760 
  47   0.0000       0.691156        18.8073 
  48   0.0000       0.724875        19.7249 
  49   0.0000       0.726581        19.7713 
  50   0.0000       0.777657        21.1611 
  51   0.0000       0.792285        21.5592 
  52   0.0000       0.805811        21.9272 
  53   0.0000       0.806962        21.9586 
  54   0.0000       0.810630        22.0584 
  55   0.0000       0.811857        22.0917 
  56   0.0000       0.839735        22.8503 
  57   0.0000       0.853398        23.2221 
  58   0.0000       0.878005        23.8917 
  59   0.0000       0.894768        24.3479 
  60   0.0000       0.904547        24.6140 
  61   0.0000       0.906276        24.6610 
  62   0.0000       0.937792        25.5186 
  63   0.0000       0.941991        25.6329 
  64   0.0000       0.944240        25.6941 
  65   0.0000       0.971203        26.4278 
  66   0.0000       0.972913        26.4743 
  67   0.0000       1.053904        28.6782 
  68   0.0000       1.055848        28.7311 
  69   0.0000       1.094593        29.7854 
  70   0.0000       1.204158        32.7668 
  71   0.0000       1.210632        32.9430 
  72   0.0000       1.245266        33.8854 
  73   0.0000       1.264661        34.4132 
  74   0.0000       1.302724        35.4489 
  75   0.0000       1.304061        35.4853 
  76   0.0000       1.338830        36.4314 
  77   0.0000       1.341617        36.5073 
  78   0.0000       1.358077        36.9552 
  79   0.0000       1.441064        39.2133 
  80   0.0000       1.529973        41.6327 
  81   0.0000       1.530451        41.6457 
  82   0.0000       1.598610        43.5004 
  83   0.0000       1.652748        44.9736 
  84   0.0000       1.659672        45.1620 
  85   0.0000       1.704005        46.3683 
  86   0.0000       1.706139        46.4264 
  87   0.0000       1.862837        50.6904 
  88   0.0000       1.864186        50.7271 
  89   0.0000       1.920414        52.2571 
  90   0.0000       2.481013        67.5118 
  91   0.0000       2.529933        68.8430 
  92   0.0000       2.547439        69.3193 
  93   0.0000       2.548642        69.3521 
  94   0.0000       2.574076        70.0442 
  95   0.0000       2.574587        70.0581 
  96   0.0000       2.605872        70.9094 
  97   0.0000       2.608766        70.9881 
  98   0.0000       2.633893        71.6719 
  99   0.0000       2.657353        72.3102 
 100   0.0000       2.659085        72.3574 
 101   0.0000       2.661140        72.4133 
 102   0.0000       2.664116        72.4943 
 103   0.0000       2.699730        73.4634 
 104   0.0000       2.701438        73.5099 
 105   0.0000       2.856573        77.7313 
 106   0.0000       2.986129        81.2567 
 107   0.0000       2.987885        81.3045 
 108   0.0000       3.074122        83.6511 
 109   0.0000       3.079482        83.7970 
 110   0.0000       3.111793        84.6762 
 111   0.0000       3.166839        86.1741 
 112   0.0000       3.179529        86.5194 
 113   0.0000       3.180124        86.5356 
 114   0.0000       3.301708        89.8440 
 115   0.0000       3.353998        91.2669 
 116   0.0000       3.354344        91.2764 
 117   0.0000       3.509179        95.4896 
 118   0.0000       3.511576        95.5548 
 119   0.0000       3.588127        97.6379 
 120   0.0000       3.615710        98.3885 
 121   0.0000       3.677745       100.0765 
 122   0.0000       3.679001       100.1107 
 123   0.0000       3.938901       107.1830 
 124   0.0000       3.961851       107.8074 
 125   0.0000       3.963880       107.8627 
 126   0.0000       4.240487       115.3895 
 127   0.0000       4.241119       115.4067 
 128   0.0000       4.242378       115.4410 
 129   0.0000       4.397851       119.6716 
 130   0.0000       4.399691       119.7217 
 131   0.0000       4.423646       120.3735 
 132   0.0000       4.615279       125.5881 
 133   0.0000       4.642959       126.3413 
 134   0.0000       4.643197       126.3478 
 135   0.0000       4.663274       126.8941 
 136   0.0000       4.665542       126.9559 
 137   0.0000       4.776572       129.9771 
 138   0.0000       4.888592       133.0253 
 139   0.0000       4.994848       135.9167 
 140   0.0000       4.998345       136.0119 
 141   0.0000       5.160866       140.4343 
 142   0.0000       5.323303       144.8544 
 143   0.0000       5.539713       150.7433 
 144   0.0000       5.542369       150.8155 
 145   0.0000       5.982393       162.7892 
 146   0.0000       5.985069       162.8620 
 147   0.0000       8.238393       224.1781 
 148   0.0000       8.239136       224.1983 
 149   0.0000       8.248474       224.4524 
 150   0.0000       8.249078       224.4688 
 151   0.0000       8.249461       224.4792 
 152   0.0000       8.249645       224.4843 
 153   0.0000       8.283087       225.3942 
 154   0.0000       8.623645       234.6613 
 155   0.0000       8.623865       234.6673 
 156   0.0000       8.669180       235.9004 
 157   0.0000       8.669745       235.9157 
 158   0.0000       8.729529       237.5425 
 159   0.0000      10.115838       275.2660 
 160   0.0000      15.431339       419.9081 

                    ********************************
                    * MULLIKEN POPULATION ANALYSIS *
                    ********************************

--------------------------------------------
MULLIKEN ATOMIC CHARGES AND SPIN POPULATIONS
--------------------------------------------
   0 C :   -0.590027    0.000000
   1 H :    0.333162    0.000000
   2 H :    0.328451    0.000000
   3 H :    0.338110    0.000000
   4 F :   -0.409696    0.000000
Sum of atomic charges         :    0.0000000
Sum of atomic spin populations:    0.0000000

-----------------------------------------------------
MULLIKEN REDUCED ORBITAL CHARGES AND SPIN POPULATIONS
-----------------------------------------------------
CHARGE
  0 C s       :     3.565090  s :     3.565090
      pz      :     1.218428  p :     2.966290
      px      :     1.047752
      py      :     0.700110
      dz2     :     0.009273  d :     0.055606
      dxz     :     0.023119
      dyz     :     0.004722
      dx2y2   :     0.007024
      dxy     :     0.011468
      f0      :     0.000083  f :     0.003042
      f+1     :     0.001522
      f-1     :     0.000219
      f+2     :     0.000450
      f-2     :     0.000060
      f+3     :     0.000362
      f-3     :     0.000346
  1 H s       :     0.636720  s :     0.636720
      pz      :     0.005488  p :     0.028319
      px      :     0.013951
      py      :     0.008879
      dz2     :    -0.000091  d :     0.001799
      dxz     :     0.000604
      dyz     :     0.000868
      dx2y2   :     0.002492
      dxy     :    -0.002073
  2 H s       :     0.648299  s :     0.648299
      pz      :     0.008917  p :     0.021571
      px      :     0.005530
      py      :     0.007123
      dz2     :     0.000978  d :     0.001680
      dxz     :    -0.001190
      dyz     :     0.000857
      dx2y2   :     0.000216
      dxy     :     0.000819
  3 H s       :     0.639329  s :     0.639329
      pz      :     0.010166  p :     0.023301
      px      :     0.005023
      py      :     0.008111
      dz2     :    -0.001400  d :    -0.000740
      dxz     :    -0.000871
      dyz     :     0.001118
      dx2y2   :     0.000012
      dxy     :     0.000401
  4 F s       :     4.000382  s :     4.000382
      pz      :     1.994294  p :     5.408407
      px      :     1.857447
      py      :     1.556666
      dz2     :     0.000177  d :     0.000811
      dxz     :     0.000021
      dyz     :     0.000047
      dx2y2   :     0.000171
      dxy     :     0.000396
      f0      :     0.000008  f :     0.000096
      f+1     :     0.000004
      f-1     :     0.000022
      f+2     :     0.000003
      f-2     :     0.000009
      f+3     :     0.000033
      f-3     :     0.000018

SPIN
  0 C s       :     0.000000  s :     0.000000
      pz      :     0.000000  p :     0.000000
      px      :     0.000000
      py      :     0.000000
      dz2     :     0.000000  d :     0.000000
      dxz     :     0.000000
      dyz     :     0.000000
      dx2y2   :     0.000000
      dxy     :     0.000000
      f0      :     0.000000  f :     0.000000
      f+1     :     0.000000
      f-1     :     0.000000
      f+2     :     0.000000
      f-2     :     0.000000
      f+3     :     0.000000
      f-3     :     0.000000
  1 H s       :     0.000000  s :     0.000000
      pz      :     0.000000  p :     0.000000
      px      :     0.000000
      py      :     0.000000
      dz2     :     0.000000  d :     0.000000
      dxz     :     0.000000
      dyz     :     0.000000
      dx2y2   :     0.000000
      dxy     :     0.000000
  2 H s       :     0.000000  s :     0.000000
      pz      :     0.000000  p :     0.000000
      px      :     0.000000
      py      :     0.000000
      dz2     :     0.000000  d :     0.000000
      dxz     :     0.000000
      dyz     :     0.000000
      dx2y2   :     0.000000
      dxy     :     0.000000
  3 H s       :     0.000000  s :     0.000000
      pz      :     0.000000  p :     0.000000
      px      :     0.000000
      py      :     0.000000
      dz2     :     0.000000  d :     0.000000
      dxz     :     0.000000
      dyz     :     0.000000
      dx2y2   :     0.000000
      dxy     :     0.000000
  4 F s       :     0.000000  s :     0.000000
      pz      :     0.000000  p :     0.000000
      px      :     0.000000
      py      :     0.000000
      dz2     :     0.000000  d :     0.000000
      dxz     :     0.000000
      dyz     :     0.000000
      dx2y2   :     0.000000
      dxy     :     0.000000
      f0      :     0.000000  f :     0.000000
      f+1     :     0.000000
      f-1     :     0.000000
      f+2     :     0.000000
      f-2     :     0.000000
      f+3     :     0.000000
      f-3     :     0.000000


                     *******************************
                     * LOEWDIN POPULATION ANALYSIS *
                     *******************************

-------------------------------------------
LOEWDIN ATOMIC CHARGES AND SPIN POPULATIONS
-------------------------------------------
   0 C :    1.008735    0.000000
   1 H :   -0.220540    0.000000
   2 H :   -0.220636    0.000000
   3 H :   -0.219770    0.000000
   4 F :   -0.347790    0.000000

----------------------------------------------------
LOEWDIN REDUCED ORBITAL CHARGES AND SPIN POPULATIONS
----------------------------------------------------
CHARGE
  0 C s       :     2.598501  s :     2.598501
      pz      :     0.897478  p :     2.164016
      px      :     0.773320
      py      :     0.493218
      dz2     :     0.051186  d :     0.193060
      dxz     :     0.071726
      dyz     :     0.004805
      dx2y2   :     0.015485
      dxy     :     0.049857
      f0      :     0.001593  f :     0.035688
      f+1     :     0.011285
      f-1     :     0.004593
      f+2     :     0.008713
      f-2     :     0.001072
      f+3     :     0.005720
      f-3     :     0.002712
  1 H s       :     0.685446  s :     0.685446
      pz      :     0.101485  p :     0.337679
      px      :     0.119928
      py      :     0.116266
      dz2     :     0.013550  d :     0.197415
      dxz     :     0.053734
      dyz     :     0.039846
      dx2y2   :     0.036536
      dxy     :     0.053748
  2 H s       :     0.685803  s :     0.685803
      pz      :     0.143596  p :     0.337456
      px      :     0.126303
      py      :     0.067558
      dz2     :     0.077241  d :     0.197376
      dxz     :     0.047835
      dyz     :     0.022329
      dx2y2   :     0.024598
      dxy     :     0.025374
  3 H s       :     0.685122  s :     0.685122
      pz      :     0.159589  p :     0.337445
      px      :     0.110809
      py      :     0.067047
      dz2     :     0.078892  d :     0.197203
      dxz     :     0.058402
      dyz     :     0.031154
      dx2y2   :     0.012134
      dxy     :     0.016620
  4 F s       :     3.968422  s :     3.968422
      pz      :     1.988360  p :     5.378369
      px      :     1.848613
      py      :     1.541396
      dz2     :     0.000198  d :     0.000919
      dxz     :     0.000019
      dyz     :     0.000056
      dx2y2   :     0.000210
      dxy     :     0.000435
      f0      :     0.000007  f :     0.000080
      f+1     :     0.000003
      f-1     :     0.000017
      f+2     :     0.000003
      f-2     :     0.000008
      f+3     :     0.000026
      f-3     :     0.000016

SPIN
  0 C s       :     0.000000  s :     0.000000
      pz      :     0.000000  p :     0.000000
      px      :     0.000000
      py      :     0.000000
      dz2     :     0.000000  d :     0.000000
      dxz     :     0.000000
      dyz     :     0.000000
      dx2y2   :     0.000000
      dxy     :     0.000000
      f0      :     0.000000  f :     0.000000
      f+1     :     0.000000
      f-1     :     0.000000
      f+2     :     0.000000
      f-2     :     0.000000
      f+3     :     0.000000
      f-3     :     0.000000
  1 H s       :     0.000000  s :     0.000000
      pz      :     0.000000  p :     0.000000
      px      :     0.000000
      py      :     0.000000
      dz2     :     0.000000  d :     0.000000
      dxz     :     0.000000
      dyz     :     0.000000
      dx2y2   :     0.000000
      dxy     :     0.000000
  2 H s       :     0.000000  s :     0.000000
      pz      :     0.000000  p :     0.000000
      px      :     0.000000
      py      :     0.000000
      dz2     :     0.000000  d :     0.000000
      dxz     :     0.000000
      dyz     :     0.000000
      dx2y2   :     0.000000
      dxy     :     0.000000
  3 H s       :     0.000000  s :     0.000000
      pz      :     0.000000  p :     0.000000
      px      :     0.000000
      py      :     0.000000
      dz2     :     0.000000  d :     0.000000
      dxz     :     0.000000
      dyz     :     0.000000
      dx2y2   :     0.000000
      dxy     :     0.000000
  4 F s       :     0.000000  s :     0.000000
      pz      :     0.000000  p :     0.000000
      px      :     0.000000
      py      :     0.000000
      dz2     :     0.000000  d :     0.000000
      dxz     :     0.000000
      dyz     :     0.000000
      dx2y2   :     0.000000
      dxy     :     0.000000
      f0      :     0.000000  f :     0.000000
      f+1     :     0.000000
      f-1     :     0.000000
      f+2     :     0.000000
      f-2     :     0.000000
      f+3     :     0.000000
      f-3     :     0.000000


                      *****************************
                      * MAYER POPULATION ANALYSIS *
                      *****************************

  NA   - Mulliken gross atomic population
  ZA   - Total nuclear charge
  QA   - Mulliken gross atomic charge
  VA   - Mayer's total valence
  BVA  - Mayer's bonded valence
  FA   - Mayer's free valence

  ATOM       NA         ZA         QA         VA         BVA        FA
  0 C      6.5900     6.0000    -0.5900     3.3209     3.3209     0.0000
  1 H      0.6668     1.0000     0.3332     0.9067     0.9067    -0.0000
  2 H      0.6715     1.0000     0.3285     0.8766     0.8766     0.0000
  3 H      0.6619     1.0000     0.3381     0.8875     0.8875     0.0000
  4 F      9.4097     9.0000    -0.4097     0.8401     0.8401    -0.0000

  Mayer bond orders larger than 0.100000
B(  0-C ,  1-H ) :   0.8567 B(  0-C ,  2-H ) :   0.8334 B(  0-C ,  3-H ) :   0.8455 
B(  0-C ,  4-F ) :   0.7853 

-------
TIMINGS
-------

Total SCF time: 0 days 0 hours 0 min 24 sec 

Total time                  ....      24.290 sec
Sum of individual times     ....      23.917 sec  ( 98.5%)

Fock matrix formation       ....      22.562 sec  ( 92.9%)
  Split-RI-J                ....      11.422 sec  ( 50.6% of F)
  XC integration            ....      10.989 sec  ( 48.7% of F)
    Basis function eval.    ....       2.210 sec  ( 20.1% of XC)
    Density eval.           ....       2.301 sec  ( 20.9% of XC)
    XC-Functional eval.     ....       0.314 sec  (  2.9% of XC)
    XC-Potential eval.      ....       5.949 sec  ( 54.1% of XC)
Diagonalization             ....       0.675 sec  (  2.8%)
Density matrix formation    ....       0.025 sec  (  0.1%)
Population analysis         ....       0.005 sec  (  0.0%)
Initial guess               ....       0.199 sec  (  0.8%)
Orbital Transformation      ....       0.000 sec  (  0.0%)
Orbital Orthonormalization  ....       0.000 sec  (  0.0%)
DIIS solution               ....       0.192 sec  (  0.8%)
Grid generation             ....       0.259 sec  (  1.1%)

-------------------------   --------------------
FINAL SINGLE POINT ENERGY      -139.596874265962
-------------------------   --------------------

------------------------------------------------------------------------------
                         ORCA SCF GRADIENT CALCULATION
------------------------------------------------------------------------------

Gradient of the Kohn-Sham DFT energy:
Kohn-Sham wavefunction type      ... UKS
Hartree-Fock exchange scaling    ...    0.000
Number of operators              ...    2
Number of atoms                  ...    5
Basis set dimensions             ...  161
Integral neglect threshold       ... 2.5e-11
Integral primitive cutoff        ... 2.5e-12

Nuclear repulsion gradient       ... done
One Electron Gradient            ... done
Pre-screening matrix             ... done
RI-J gradient                    ... done
Exchange-correlation gradient    ... done

------------------
CARTESIAN GRADIENT
------------------

   1   C   :    0.018826842   -0.033846013    0.002747246
   2   H   :   -0.024018985    0.011727145   -0.002743058
   3   H   :   -0.002660668    0.022732490   -0.014136054
   4   H   :   -0.005437869    0.023311220    0.012232184
   5   F   :    0.013290681   -0.023924842    0.001899682

Difference to translation invariance:
           :   -0.0000000000    0.0000000000   -0.0000000000

Norm of the cartesian gradient     ...    0.0665465549
RMS gradient                       ...    0.0171822466
MAX gradient                       ...    0.0338460126

-------
TIMINGS
-------

Total SCF gradient time            ...        2.113 sec

One electron gradient       ....       0.041 sec  (  1.9%)
Prescreening matrices       ....       0.196 sec  (  9.3%)
RI-J Coulomb gradient       ....       0.291 sec  ( 13.7%)
XC gradient                 ....       1.435 sec  ( 67.9%)
------------------------------------------------------------------------------
                         ORCA GEOMETRY RELAXATION STEP
------------------------------------------------------------------------------

Reading the OPT-File                    .... done
Getting information on internals        .... done
Copying old internal coords+grads       .... done
Making the new internal coordinates     .... (new redundants).... done
Validating the new internal coordinates .... (new redundants).... done
Calculating the B-matrix                .... done
Calculating the G,G- and P matrices     .... done
Transforming gradient to internals      .... done
Projecting the internal gradient        .... done
Number of atoms                         ....   5
Number of internal coordinates          ....  13
Current Energy                          ....  -139.596874266 Eh
Current gradient norm                   ....     0.066546555 Eh/bohr
Maximum allowed component of the step   ....  0.300
Current trust radius                    ....  0.300
Evaluating the initial hessian          ....  (Almloef) done
Projecting the Hessian                  .... done
Forming the augmented Hessian           .... done
Diagonalizing the augmented Hessian     .... done
Last element of RFO vector              ....  0.937231847
Lowest eigenvalues of augmented Hessian:
 -0.016857863  0.040216166  0.040216167  0.100164969  0.293923086
Length of the computed step             ....  0.372060390
Warning: the length of the step is outside the trust region - taking restricted step instead
The input lambda is                     ....    -0.016858
   iter:   1  x=   -0.035959  g=    2.535366 f(x)=     0.048429
   iter:   2  x=   -0.042810  g=    1.540940 f(x)=     0.010556
   iter:   3  x=   -0.043423  g=    1.313982 f(x)=     0.000805
   iter:   4  x=   -0.043427  g=    1.295938 f(x)=     0.000006
   iter:   5  x=   -0.043427  g=    1.295813 f(x)=     0.000000
   iter:   6  x=   -0.043427  g=    1.295813 f(x)=    -0.000000
The output lambda is                    ....    -0.043427 (6 iterations)
The final length of the internal step   ....  0.300000000
Converting the step to cartesian space:
 Initial RMS(Int)=    0.0832050294
Transforming coordinates:
 Iter   0:  RMS(Cart)=    0.0563534720 RMS(Int)=    0.0810971282
 Iter   1:  RMS(Cart)=    0.0024117176 RMS(Int)=    0.0040724714
 Iter   2:  RMS(Cart)=    0.0002183460 RMS(Int)=    0.0002804218
 Iter   3:  RMS(Cart)=    0.0000107626 RMS(Int)=    0.0000110185
 Iter   4:  RMS(Cart)=    0.0000007073 RMS(Int)=    0.0000012604
 Iter   5:  RMS(Cart)=    0.0000000797 RMS(Int)=    0.0000001120
Imposing constraints:
 Iter   0:  RMS(Cart)=    0.0006045175 RMS(Int)=    0.0032400246
 Iter   1:  RMS(Cart)=    0.0003022689 RMS(Int)=    0.0016200667
 Iter   2:  RMS(Cart)=    0.0001511395 RMS(Int)=    0.0008100606
 Iter   3:  RMS(Cart)=    0.0000755723 RMS(Int)=    0.0004050439
 Iter   4:  RMS(Cart)=    0.0000377874 RMS(Int)=    0.0002025288
 Iter   5:  RMS(Cart)=    0.0000188943 RMS(Int)=    0.0001012678
 Iter   6:  RMS(Cart)=    0.0000094475 RMS(Int)=    0.0000506356
 Iter   7:  RMS(Cart)=    0.0000047239 RMS(Int)=    0.0000253186
 Iter   8:  RMS(Cart)=    0.0000023620 RMS(Int)=    0.0000126597
 Iter   9:  RMS(Cart)=    0.0000011811 RMS(Int)=    0.0000063301
 Iter  10:  RMS(Cart)=    0.0000005905 RMS(Int)=    0.0000031651
 Iter  11:  RMS(Cart)=    0.0000002953 RMS(Int)=    0.0000015826
 Iter  12:  RMS(Cart)=    0.0000001476 RMS(Int)=    0.0000007913
 Iter  13:  RMS(Cart)=    0.0000000738 RMS(Int)=    0.0000003957
 Iter  14:  RMS(Cart)=    0.0000000369 RMS(Int)=    0.0000001978
 Iter  15:  RMS(Cart)=    0.0000000185 RMS(Int)=    0.0000000989
CONVERGED
done
Storing new coordinates                 .... done

                                .--------------------.
          ----------------------|Geometry convergence|-------------------------
          Item                value                   Tolerance       Converged
          ---------------------------------------------------------------------
          RMS gradient        0.0142966150            0.0001000000      NO
          MAX gradient        0.0160055133            0.0003000000      NO
          RMS step            0.0832050294            0.0020000000      NO
          MAX step            0.1245232898            0.0040000000      NO
          ........................................................
          Max(Bonds)      0.0659      Max(Angles)    4.82
          Max(Dihed)        0.00      Max(Improp)    0.00
          ---------------------------------------------------------------------

The optimization has not yet converged - more geometry cycles are needed


    ---------------------------------------------------------------------------
                         Redundant Internal Coordinates
                            (Angstroem and degrees)

        Definition                    Value    dE/dq     Step     New-Value
    ----------------------------------------------------------------------------
     1. B(H   1,C   0)                1.0809 -0.014464  0.0134    1.0943   
     2. B(H   2,C   0)                1.0809 -0.014495  0.0134    1.0943   
     3. B(H   3,C   0)                1.0809 -0.014439  0.0134    1.0942   
     4. B(F   4,H   3)                3.5024  0.012142 -0.0659    3.4365   
     5. B(F   4,H   1)                3.5024  0.012139 -0.0659    3.4366   
     6. B(F   4,C   0)                3.0000 -0.007398 -0.0000    3.0000 C 
     7. B(F   4,H   2)                3.5024  0.012139 -0.0659    3.4365   
     8. A(H   2,C   0,H   3)          110.05 -0.016317    4.71    114.76   
     9. A(H   1,C   0,F   4)          108.88  0.016725   -4.82    104.06   
    10. A(H   2,C   0,F   4)          108.88  0.016736   -4.82    104.06   
    11. A(H   3,C   0,F   4)          108.88  0.016718   -4.82    104.06   
    12. A(H   1,C   0,H   2)          110.05 -0.016386    4.72    114.78   
    13. A(H   1,C   0,H   3)          110.05 -0.016366    4.72    114.77   
    ----------------------------------------------------------------------------

         *************************************************************
         *                GEOMETRY OPTIMIZATION CYCLE   2            *
         *************************************************************
---------------------------------
CARTESIAN COORDINATES (ANGSTROEM)
---------------------------------
  C     -1.584135    0.762040   -0.109344
  H     -0.790805    1.514531   -0.042299
  H     -2.270455    0.752524    0.744516
  H     -2.078276    0.713125   -1.085801
  F     -0.126770   -1.851818    0.100013

----------------------------
CARTESIAN COORDINATES (A.U.)
----------------------------
  NO LB      ZA    FRAG     MASS         X           Y           Z
   0 C     6.0000    0    12.011   -2.993582    1.440047   -0.206630
   1 H     1.0000    0     1.008   -1.494405    2.862049   -0.079933
   2 H     1.0000    0     1.008   -4.290538    1.422065    1.406931
   3 H     1.0000    0     1.008   -3.927372    1.347612   -2.051867
   4 F     9.0000    0    18.998   -0.239561   -3.499430    0.188998

--------------------------------
INTERNAL COORDINATES (ANGSTROEM)
--------------------------------
 C      0   0   0     0.000000000000     0.00000000     0.00000000
 H      1   0   0     1.095495401783     0.00000000     0.00000000
 H      1   2   0     1.095536754676   114.32674647     0.00000000
 H      1   2   3     1.095461489707   114.32324242   134.44590544
 F      1   2   3     3.000000051417   104.02915693   247.22413981

---------------------------
INTERNAL COORDINATES (A.U.)
---------------------------
 C      0   0   0     0.000000000000     0.00000000     0.00000000
 H      1   0   0     2.070186290339     0.00000000     0.00000000
 H      1   2   0     2.070264435983   114.32674647     0.00000000
 H      1   2   3     2.070122205804   114.32324242   134.44590544
 F      1   2   3     5.669178498928   104.02915693   247.22413981

 One Electron integrals                  ... done
 Pre-screening matrix                    ... done

Diagonalization of the overlap matrix:
Smallest eigenvalue                        ... 1.267e-04
Time for diagonalization                   ...    0.004 sec
Threshold for overlap eigenvalues          ... 1.000e-08
Number of eigenvalues below threshold      ... 0
Time for construction of square roots      ...    0.002 sec
Total time needed                          ...    0.005 sec

-------------------
DFT GRID GENERATION
-------------------

General Integration Accuracy     IntAcc      ...  4.340
Radial Grid Type                 RadialGrid  ... Gauss-Chebyshev
Angular Grid (max. acc.)         AngularGrid ... Lebedev-110
Angular grid pruning method      GridPruning ... 3 (G Style)
Weight generation scheme         WeightScheme... Becke
Basis function cutoff            BFCut       ...    1.0000e-11
Integration weight cutoff        WCut        ...    1.0000e-14
Grids for H and He will be reduced by one unit

# of grid points (after initial pruning)     ...   5778 (   0.0 sec)
# of grid points (after weights+screening)   ...   5669 (   0.0 sec)
nearest neighbour list constructed           ...    0.0 sec
Grid point re-assignment to atoms done       ...    0.0 sec
Grid point division into batches done        ...    0.0 sec
Reduced shell lists constructed in    0.0 sec

Total number of grid points                  ...     5669
Total number of batches                      ...       92
Average number of points per batch           ...       61
Average number of grid points per atom       ...     1134
Average number of shells per batch           ...    46.18 (83.97%)
Average number of basis functions per batch  ...   133.02 (82.62%)
Average number of large shells per batch     ...    41.20 (89.22%)
Average number of large basis fcns per batch ...   117.38 (88.24%)
Maximum spatial batch extension              ...  21.59, 23.60, 22.48 au
Average spatial batch extension              ...   5.50,  4.95,  4.70 au

Time for grid setup =    0.040 sec

--------------
SCF ITERATIONS
--------------
ITER       Energy         Delta-E        Max-DP      RMS-DP      [F,P]     Damp
               ***  Starting incremental Fock matrix formation  ***
  0   -139.6059146610   0.000000000000 0.00120423  0.00002115  0.0785302 0.9200
  1   -139.6061122379  -0.000197576899 0.00135968  0.00002335  0.0723404 0.9200
                               ***Turning on DIIS***
  2   -139.6063001486  -0.000187910700 0.00130295  0.00002239  0.0665009 0.9200
  3   -139.6064680976  -0.000167949052 0.00120754  0.00002074  0.0611326 0.9200
  4   -139.6066174866  -0.000149388982 0.00110941  0.00001905  0.0562097 0.9200
  5   -139.6067508527  -0.000133366144 0.00101553  0.00001756  0.0517016 0.9200
  6   -139.6068700476  -0.000119194857 0.00092768  0.00001616  0.0475653 0.9200
  7   -139.6069779712  -0.000107923610 0.00084827  0.00001487  0.0437630 0.9200
  8   -139.6070774710  -0.000099499796 0.00077743  0.00001362  0.0402600 0.9200
  9   -139.6071691177  -0.000091646739 0.00071460  0.00001246  0.0370352 0.9200
 10   -139.6072531106  -0.000083992829 0.00065700  0.00001146  0.0340687 0.9200
 11   -139.6073296972  -0.000076586624 0.00060347  0.00001055  0.0313403 0.9200
 12   -139.6073998126  -0.000070115459 0.00055457  0.00000975  0.0288304 0.9200
 13   -139.6074640989  -0.000064286214 0.00051036  0.00000895  0.0265214 0.9200
 14   -139.6075230925  -0.000058993613 0.00046986  0.00000821  0.0243976 0.9200
 15   -139.6075772017  -0.000054109242 0.00043190  0.00000755  0.0224442 0.9200
 16   -139.6076267292  -0.000049527480 0.00039650  0.00000695  0.0206472 0.9200
 17   -139.6076721933  -0.000045464077 0.00036432  0.00000642  0.0189936 0.9200
 18   -139.6077139368  -0.000041743509 0.00033534  0.00000589  0.0174723 0.9200
 19   -139.6077522873  -0.000038350477 0.00030874  0.00000541  0.0160731 0.9200
               *** Restarting incremental Fock matrix formation ***
                                   *** Resetting DIIS ***
 20   -139.6077874605  -0.000035173279 0.00028795  0.00000498  0.0147863 0.9200
 21   -139.6078198956  -0.000032435106 0.00026342  0.00000458  0.0135959 0.9200
 22   -139.6078496496  -0.000029753964 0.00024128  0.00000422  0.0125024 0.9200
 23   -139.6078769282  -0.000027278630 0.00022134  0.00000389  0.0114999 0.9200
 24   -139.6079019412  -0.000025012955 0.00020293  0.00000358  0.0105798 0.9200
 25   -139.6079249034  -0.000022962209 0.00018613  0.00000328  0.0097340 0.9200
 26   -139.6079460211  -0.000021117694 0.00017062  0.00000302  0.0089551 0.9200
 27   -139.6079654476  -0.000019426470 0.00015665  0.00000277  0.0082379 0.9200
 28   -139.6079833128  -0.000017865190 0.00014410  0.00000255  0.0075781 0.9200
 29   -139.6079997393  -0.000016426579 0.00013259  0.00000234  0.0069713 0.9200
 30   -139.6080148413  -0.000015101981 0.00012191  0.00000216  0.0064132 0.9200
 31   -139.6080287261  -0.000013884753 0.00011202  0.00000199  0.0058998 0.9200
 32   -139.6080414949  -0.000012768845 0.00010298  0.00000183  0.0054275 0.9200
 33   -139.6080532384  -0.000011743498 0.00009472  0.00000168  0.0049929 0.9200
 34   -139.6080640401  -0.000010801660 0.00008713  0.00000154  0.0045931 0.9200
 35   -139.6080739744  -0.000009934374 0.00008009  0.00000142  0.0042255 0.9200
 36   -139.6080831104  -0.000009135967 0.00007365  0.00000131  0.0038872 0.9200
 37   -139.6080915139  -0.000008403473 0.00006774  0.00000120  0.0035760 0.9200
 38   -139.6080992444  -0.000007730506 0.00006233  0.00000111  0.0032896 0.9200
 39   -139.6081063556  -0.000007111190 0.00005738  0.00000102  0.0030263 0.9200
               *** Restarting incremental Fock matrix formation ***
                                   *** Resetting DIIS ***
 40   -139.6081128323  -0.000006476693 0.00066844  0.00001171  0.0027840 0.0000
 41   -139.6081878690  -0.000075036749 0.00003615  0.00000096  0.0001577 0.0000
 42   -139.6081878647   0.000000004316 0.00004014  0.00000084  0.0002849 0.0000
 43   -139.6081879023  -0.000000037558 0.00000808  0.00000020  0.0001687 0.0000
 44   -139.6081879217  -0.000000019465 0.00000556  0.00000011  0.0000789 0.0000
 45   -139.6081879269  -0.000000005178 0.00000317  0.00000007  0.0000417 0.0000
 46   -139.6081879292  -0.000000002257 0.00000116  0.00000003  0.0000188 0.0000
 47   -139.6081879279   0.000000001251 0.00000083  0.00000002  0.0000102 0.0000
                 **** Energy Check signals convergence ****

               *****************************************************
               *                     SUCCESS                       *
               *           SCF CONVERGED AFTER  48 CYCLES          *
               *****************************************************

Setting up the final grid:

General Integration Accuracy     IntAcc      ...  4.670
Radial Grid Type                 RadialGrid  ... Gauss-Chebyshev
Angular Grid (max. acc.)         AngularGrid ... Lebedev-302
Angular grid pruning method      GridPruning ... 3 (G Style)
Weight generation scheme         WeightScheme... Becke
Basis function cutoff            BFCut       ...    1.0000e-11
Integration weight cutoff        WCut        ...    1.0000e-14
Grids for H and He will be reduced by one unit

# of grid points (after initial pruning)     ...  22666 (   0.0 sec)
# of grid points (after weights+screening)   ...  22268 (   0.0 sec)
nearest neighbour list constructed           ...    0.0 sec
Grid point re-assignment to atoms done       ...    0.0 sec
Grid point division into batches done        ...    0.1 sec
Reduced shell lists constructed in    0.2 sec

Total number of grid points                  ...    22268
Total number of batches                      ...      351
Average number of points per batch           ...       63
Average number of grid points per atom       ...     4454
Average number of shells per batch           ...    43.08 (78.33%)
Average number of basis functions per batch  ...   122.82 (76.29%)
Average number of large shells per batch     ...    37.86 (87.87%)
Average number of large basis fcns per batch ...   106.82 (86.97%)
Maximum spatial batch extension              ...  18.86, 16.79, 20.64 au
Average spatial batch extension              ...   3.27,  3.24,  3.27 au

Final grid set up in    0.2 sec
Final integration                            ... done (   0.5 sec)
Change in XC energy                          ...    -0.000041398
Integrated number of electrons               ...    17.999987343
Previous integrated no of electrons          ...    18.001625185
Total Energy       :         -139.60822933 Eh           -3798.93305 eV
  Last Energy change         ...   -6.6399e-10  Tolerance :   1.0000e-08
  Last MAX-Density change    ...    3.3333e-07  Tolerance :   1.0000e-07
             **** THE GBW FILE WAS UPDATED (orca.gbw) ****
             **** DENSITY FILE WAS UPDATED (orca.scfp) ****
             **** ENERGY FILE WAS UPDATED (orca.en.tmp) ****
----------------------
UHF SPIN CONTAMINATION
----------------------

Warning: in a DFT calculation there is little theoretical justification to 
         calculate <S**2> as in Hartree-Fock theory. We will do it anyways
         but you should keep in mind that the values have only limited relevance

Expectation value of <S**2>     :     0.000000
Ideal value S*(S+1) for S=0.0   :     0.000000
Deviation                       :     0.000000

[...]
  31   0.0000       0.281795         7.6680 
  32   0.0000       0.282366         7.6836 
  33   0.0000       0.296135         8.0583 
  34   0.0000       0.298280         8.1166 
  35   0.0000       0.330153         8.9839 
  36   0.0000       0.337711         9.1896 
  37   0.0000       0.344294         9.3687 
  38   0.0000       0.419808        11.4235 
  39   0.0000       0.526179        14.3181 
  40   0.0000       0.541890        14.7456 
  41   0.0000       0.551526        15.0078 
  42   0.0000       0.599947        16.3254 
  43   0.0000       0.601369        16.3641 
  44   0.0000       0.647024        17.6064 
  45   0.0000       0.647295        17.6138 
  46   0.0000       0.659974        17.9588 
  47   0.0000       0.671410        18.2700 
  48   0.0000       0.739791        20.1307 
  49   0.0000       0.743927        20.2433 
  50   0.0000       0.746802        20.3215 
  51   0.0000       0.775582        21.1047 
  52   0.0000       0.776588        21.1320 
  53   0.0000       0.792586        21.5674 
  54   0.0000       0.819024        22.2868 
  55   0.0000       0.820610        22.3299 
  56   0.0000       0.847154        23.0522 
  57   0.0000       0.849569        23.1179 
  58   0.0000       0.875459        23.8224 
  59   0.0000       0.893404        24.3108 
  60   0.0000       0.897039        24.4097 
  61   0.0000       0.903912        24.5967 
  62   0.0000       0.947999        25.7964 
  63   0.0000       0.950826        25.8733 
  64   0.0000       0.955477        25.9998 
  65   0.0000       0.959130        26.0993 
  66   0.0000       0.960053        26.1244 
  67   0.0000       1.039514        28.2866 
  68   0.0000       1.041160        28.3314 
  69   0.0000       1.043907        28.4062 
  70   0.0000       1.202737        32.7281 
  71   0.0000       1.206336        32.8261 
  72   0.0000       1.246131        33.9089 
  73   0.0000       1.314509        35.7696 
  74   0.0000       1.315072        35.7849 
  75   0.0000       1.325221        36.0611 
  76   0.0000       1.329335        36.1730 
  77   0.0000       1.387697        37.7612 
  78   0.0000       1.396901        38.0116 
  79   0.0000       1.411117        38.3984 
  80   0.0000       1.498032        40.7635 
  81   0.0000       1.596610        43.4460 
  82   0.0000       1.597037        43.4576 
  83   0.0000       1.696063        46.1522 
  84   0.0000       1.769317        48.1456 
  85   0.0000       1.773051        48.2472 
  86   0.0000       1.802495        49.0484 
  87   0.0000       1.854036        50.4509 
  88   0.0000       1.868772        50.8519 
  89   0.0000       1.871269        50.9198 
  90   0.0000       2.469866        67.2085 
  91   0.0000       2.472220        67.2725 
  92   0.0000       2.526116        68.7391 
  93   0.0000       2.584835        70.3369 
  94   0.0000       2.585702        70.3605 
  95   0.0000       2.612000        71.0761 
  96   0.0000       2.615548        71.1727 
  97   0.0000       2.636461        71.7418 
  98   0.0000       2.668937        72.6255 
  99   0.0000       2.670164        72.6589 
 100   0.0000       2.671353        72.6912 
 101   0.0000       2.672755        72.7294 
 102   0.0000       2.744114        74.6712 
 103   0.0000       2.746638        74.7398 
 104   0.0000       2.758612        75.0657 
 105   0.0000       2.823009        76.8180 
 106   0.0000       2.824555        76.8601 
 107   0.0000       2.862349        77.8885 
 108   0.0000       3.103719        84.4565 
 109   0.0000       3.110836        84.6501 
 110   0.0000       3.165000        86.1240 
 111   0.0000       3.168478        86.2187 
 112   0.0000       3.185239        86.6748 
 113   0.0000       3.204588        87.2013 
 114   0.0000       3.206676        87.2581 
 115   0.0000       3.221093        87.6504 
 116   0.0000       3.296335        89.6978 
 117   0.0000       3.449515        93.8661 
 118   0.0000       3.469321        94.4050 
 119   0.0000       3.471357        94.4604 
 120   0.0000       3.480553        94.7107 
 121   0.0000       3.767759       102.5259 
 122   0.0000       3.768277       102.5400 
 123   0.0000       3.916651       106.5775 
 124   0.0000       3.919480       106.6545 
 125   0.0000       3.920324       106.6774 
 126   0.0000       4.212700       114.6334 
 127   0.0000       4.332936       117.9052 
 128   0.0000       4.333998       117.9341 
 129   0.0000       4.348156       118.3193 
 130   0.0000       4.351119       118.4000 
 131   0.0000       4.555248       123.9546 
 132   0.0000       4.563806       124.1875 
 133   0.0000       4.649160       126.5101 
 134   0.0000       4.649387       126.5162 
 135   0.0000       4.790266       130.3498 
 136   0.0000       4.792718       130.4165 
 137   0.0000       4.832759       131.5061 
 138   0.0000       4.845507       131.8529 
 139   0.0000       4.847427       131.9052 
 140   0.0000       4.917969       133.8247 
 141   0.0000       4.920048       133.8813 
 142   0.0000       4.993191       135.8716 
 143   0.0000       5.757100       156.6587 
 144   0.0000       5.946602       161.8153 
 145   0.0000       5.948642       161.8708 
 146   0.0000       6.120043       166.5348 
 147   0.0000       8.257289       224.6923 
 148   0.0000       8.257667       224.7025 
 149   0.0000       8.264292       224.8828 
 150   0.0000       8.264377       224.8851 
 151   0.0000       8.266286       224.9371 
 152   0.0000       8.267061       224.9582 
 153   0.0000       8.291551       225.6246 
 154   0.0000       8.643330       235.1970 
 155   0.0000       8.643510       235.2019 
 156   0.0000       8.683823       236.2988 
 157   0.0000       8.684242       236.3102 
 158   0.0000       8.755716       238.2552 
 159   0.0000      10.202465       277.6232 
 160   0.0000      15.340746       417.4429 

                    ********************************
                    * MULLIKEN POPULATION ANALYSIS *
                    ********************************

--------------------------------------------
MULLIKEN ATOMIC CHARGES AND SPIN POPULATIONS
--------------------------------------------
   0 C :   -0.662112    0.000000
   1 H :    0.363915    0.000000
   2 H :    0.380766    0.000000
   3 H :    0.379445    0.000000
   4 F :   -0.462014    0.000000
Sum of atomic charges         :   -0.0000000
Sum of atomic spin populations:    0.0000000

-----------------------------------------------------
MULLIKEN REDUCED ORBITAL CHARGES AND SPIN POPULATIONS
-----------------------------------------------------
CHARGE
  0 C s       :     3.669887  s :     3.669887
      pz      :     1.215448  p :     2.927822
      px      :     1.040596
      py      :     0.671778
      dz2     :     0.016909  d :     0.058942
      dxz     :     0.021534
      dyz     :     0.004811
      dx2y2   :     0.003414
      dxy     :     0.012274
      f0      :     0.000338  f :     0.005461
      f+1     :     0.002181
      f-1     :     0.001082
      f+2     :     0.000318
      f-2     :     0.000191
      f+3     :     0.000345
      f-3     :     0.001005
  1 H s       :     0.586242  s :     0.586242
      pz      :     0.022647  p :     0.045551
      px      :     0.003370
      py      :     0.019534
      dz2     :    -0.000340  d :     0.004292
      dxz     :     0.003048
      dyz     :     0.000782
      dx2y2   :     0.001906
      dxy     :    -0.001104
  2 H s       :     0.575848  s :     0.575848
      pz      :     0.012310  p :     0.040161
      px      :     0.014329
      py      :     0.013522
      dz2     :     0.002100  d :     0.003225
      dxz     :    -0.001239
      dyz     :     0.001442
      dx2y2   :    -0.000201
      dxy     :     0.001122
  3 H s       :     0.576254  s :     0.576254
      pz      :     0.011987  p :     0.042091
      px      :     0.015571
      py      :     0.014533
      dz2     :    -0.000164  d :     0.002210
      dxz     :     0.000230
      dyz     :     0.001711
      dx2y2   :    -0.000298
      dxy     :     0.000731
  4 F s       :     4.001131  s :     4.001131
      pz      :     1.994006  p :     5.459918
      px      :     1.869723
      py      :     1.596189
      dz2     :     0.000171  d :     0.000879
      dxz     :     0.000022
      dyz     :     0.000062
      dx2y2   :     0.000194
      dxy     :     0.000430
      f0      :     0.000006  f :     0.000086
      f+1     :     0.000004
      f-1     :     0.000017
      f+2     :     0.000003
      f-2     :     0.000008
      f+3     :     0.000032
      f-3     :     0.000015

SPIN
  0 C s       :     0.000000  s :     0.000000
      pz      :     0.000000  p :     0.000000
      px      :     0.000000
      py      :     0.000000
      dz2     :     0.000000  d :     0.000000
      dxz     :     0.000000
      dyz     :     0.000000
      dx2y2   :     0.000000
      dxy     :     0.000000
      f0      :     0.000000  f :     0.000000
      f+1     :     0.000000
      f-1     :     0.000000
      f+2     :     0.000000
      f-2     :     0.000000
      f+3     :     0.000000
      f-3     :     0.000000
  1 H s       :     0.000000  s :     0.000000
      pz      :     0.000000  p :     0.000000
      px      :     0.000000
      py      :     0.000000
      dz2     :     0.000000  d :     0.000000
      dxz     :     0.000000
      dyz     :     0.000000
      dx2y2   :     0.000000
      dxy     :     0.000000
  2 H s       :     0.000000  s :     0.000000
      pz      :     0.000000  p :     0.000000
      px      :     0.000000
      py      :     0.000000
      dz2     :     0.000000  d :     0.000000
      dxz     :     0.000000
      dyz     :     0.000000
      dx2y2   :     0.000000
      dxy     :     0.000000
  3 H s       :     0.000000  s :     0.000000
      pz      :     0.000000  p :     0.000000
      px      :     0.000000
      py      :     0.000000
      dz2     :     0.000000  d :     0.000000
      dxz     :     0.000000
      dyz     :     0.000000
      dx2y2   :     0.000000
      dxy     :     0.000000
  4 F s       :     0.000000  s :     0.000000
      pz      :     0.000000  p :     0.000000
      px      :     0.000000
      py      :     0.000000
      dz2     :     0.000000  d :     0.000000
      dxz     :     0.000000
      dyz     :     0.000000
      dx2y2   :     0.000000
      dxy     :     0.000000
      f0      :     0.000000  f :     0.000000
      f+1     :     0.000000
      f-1     :     0.000000
      f+2     :     0.000000
      f-2     :     0.000000
      f+3     :     0.000000
      f-3     :     0.000000


                     *******************************
                     * LOEWDIN POPULATION ANALYSIS *
                     *******************************

-------------------------------------------
LOEWDIN ATOMIC CHARGES AND SPIN POPULATIONS
-------------------------------------------
   0 C :    1.013495    0.000000
   1 H :   -0.209699    0.000000
   2 H :   -0.209433    0.000000
   3 H :   -0.209135    0.000000
   4 F :   -0.385227    0.000000

----------------------------------------------------
LOEWDIN REDUCED ORBITAL CHARGES AND SPIN POPULATIONS
----------------------------------------------------
CHARGE
  0 C s       :     2.616396  s :     2.616396
      pz      :     0.917620  p :     2.156528
      px      :     0.777947
      py      :     0.460961
      dz2     :     0.058338  d :     0.180765
      dxz     :     0.054745
      dyz     :     0.017825
      dx2y2   :     0.014969
      dxy     :     0.034888
      f0      :     0.003434  f :     0.032816
      f+1     :     0.009587
      f-1     :     0.003905
      f+2     :     0.001998
      f-2     :     0.003538
      f+3     :     0.001758
      f-3     :     0.008597
  1 H s       :     0.700270  s :     0.700270
      pz      :     0.090359  p :     0.324165
      px      :     0.148622
      py      :     0.085183
      dz2     :     0.013061  d :     0.185264
      dxz     :     0.066137
      dyz     :     0.020818
      dx2y2   :     0.038765
      dxy     :     0.046483
  2 H s       :     0.700229  s :     0.700229
      pz      :     0.147873  p :     0.324041
      px      :     0.104850
      py      :     0.071317
      dz2     :     0.077863  d :     0.185163
      dxz     :     0.043636
      dyz     :     0.025019
      dx2y2   :     0.014517
      dxy     :     0.024127
  3 H s       :     0.699935  s :     0.699935
      pz      :     0.159286  p :     0.324157
      px      :     0.091863
      py      :     0.073009
      dz2     :     0.075666  d :     0.185043
      dxz     :     0.051835
      dyz     :     0.033827
      dx2y2   :     0.006488
      dxy     :     0.017227
  4 F s       :     3.965116  s :     3.965116
      pz      :     1.986601  p :     5.419393
      px      :     1.857852
      py      :     1.574940
      dz2     :     0.000135  d :     0.000664
      dxz     :     0.000014
      dyz     :     0.000039
      dx2y2   :     0.000150
      dxy     :     0.000326
      f0      :     0.000005  f :     0.000054
      f+1     :     0.000002
      f-1     :     0.000010
      f+2     :     0.000002
      f-2     :     0.000006
      f+3     :     0.000018
      f-3     :     0.000011

SPIN
  0 C s       :     0.000000  s :     0.000000
      pz      :     0.000000  p :     0.000000
      px      :     0.000000
      py      :     0.000000
      dz2     :     0.000000  d :     0.000000
      dxz     :     0.000000
      dyz     :     0.000000
      dx2y2   :     0.000000
      dxy     :     0.000000
      f0      :     0.000000  f :     0.000000
      f+1     :     0.000000
      f-1     :     0.000000
      f+2     :     0.000000
      f-2     :     0.000000
      f+3     :     0.000000
      f-3     :     0.000000
  1 H s       :     0.000000  s :     0.000000
      pz      :     0.000000  p :     0.000000
      px      :     0.000000
      py      :     0.000000
      dz2     :     0.000000  d :     0.000000
      dxz     :     0.000000
      dyz     :     0.000000
      dx2y2   :     0.000000
      dxy     :     0.000000
  2 H s       :     0.000000  s :     0.000000
      pz      :     0.000000  p :     0.000000
      px      :     0.000000
      py      :     0.000000
      dz2     :     0.000000  d :     0.000000
      dxz     :     0.000000
      dyz     :     0.000000
      dx2y2   :     0.000000
      dxy     :     0.000000
  3 H s       :     0.000000  s :     0.000000
      pz      :     0.000000  p :     0.000000
      px      :     0.000000
      py      :     0.000000
      dz2     :     0.000000  d :     0.000000
      dxz     :     0.000000
      dyz     :     0.000000
      dx2y2   :     0.000000
      dxy     :     0.000000
  4 F s       :     0.000000  s :     0.000000
      pz      :     0.000000  p :     0.000000
      px      :     0.000000
      py      :     0.000000
      dz2     :     0.000000  d :     0.000000
      dxz     :     0.000000
      dyz     :     0.000000
      dx2y2   :     0.000000
      dxy     :     0.000000
      f0      :     0.000000  f :     0.000000
      f+1     :     0.000000
      f-1     :     0.000000
      f+2     :     0.000000
      f-2     :     0.000000
      f+3     :     0.000000
      f-3     :     0.000000


                      *****************************
                      * MAYER POPULATION ANALYSIS *
                      *****************************

  NA   - Mulliken gross atomic population
  ZA   - Total nuclear charge
  QA   - Mulliken gross atomic charge
  VA   - Mayer's total valence
  BVA  - Mayer's bonded valence
  FA   - Mayer's free valence

  ATOM       NA         ZA         QA         VA         BVA        FA
  0 C      6.6621     6.0000    -0.6621     3.1293     3.1293     0.0000
  1 H      0.6361     1.0000     0.3639     0.9179     0.9179     0.0000
  2 H      0.6192     1.0000     0.3808     0.8800     0.8800     0.0000
  3 H      0.6206     1.0000     0.3794     0.8821     0.8821     0.0000
  4 F      9.4620     9.0000    -0.4620     0.7976     0.7976     0.0000

  Mayer bond orders larger than 0.100000
B(  0-C ,  1-H ) :   0.8238 B(  0-C ,  2-H ) :   0.7948 B(  0-C ,  3-H ) :   0.7972 
B(  0-C ,  4-F ) :   0.7134 

-------
TIMINGS
-------

Total SCF time: 0 days 0 hours 0 min 1 sec 

Total time                  ....       1.397 sec
Sum of individual times     ....       1.280 sec  ( 91.6%)

Fock matrix formation       ....       1.002 sec  ( 71.7%)
  Split-RI-J                ....       0.276 sec  ( 27.5% of F)
  XC integration            ....       0.718 sec  ( 71.6% of F)
    Basis function eval.    ....       0.139 sec  ( 19.4% of XC)
    Density eval.           ....       0.152 sec  ( 21.2% of XC)
    XC-Functional eval.     ....       0.020 sec  (  2.8% of XC)
    XC-Potential eval.      ....       0.395 sec  ( 55.0% of XC)
Diagonalization             ....       0.016 sec  (  1.1%)
Density matrix formation    ....       0.001 sec  (  0.1%)
Population analysis         ....       0.005 sec  (  0.4%)
Initial guess               ....       0.005 sec  (  0.4%)
Orbital Transformation      ....       0.000 sec  (  0.0%)
Orbital Orthonormalization  ....       0.004 sec  (  0.3%)
DIIS solution               ....       0.003 sec  (  0.2%)
Grid generation             ....       0.248 sec  ( 17.8%)

-------------------------   --------------------
FINAL SINGLE POINT ENERGY      -139.620790452148
-------------------------   --------------------

                                *** OPTIMIZATION RUN DONE ***

                            ***************************************
                            *     ORCA property calculations      *
                            ***************************************

                                    ---------------------
                                    Active property flags
                                    ---------------------
   (+) Dipole Moment


------------------------------------------------------------------------------
                       ORCA ELECTRIC PROPERTIES CALCULATION
------------------------------------------------------------------------------

Dipole Moment Calculation                       ... on
Quadrupole Moment Calculation                   ... off
Polarizability Calculation                      ... off
GBWName                                         ... orca.gbw
Electron density file                           ... orca.scfp
The origin for moment calculation is the CENTER OF MASS  = (-1.599012, -1.060631 -0.006110)

-------------
DIPOLE MOMENT
-------------
                                X             Y             Z
Electronic contribution:      1.68320      -3.01705       0.24341
Nuclear contribution   :     -2.89594       5.19213      -0.41649
                        -----------------------------------------
Total Dipole Moment    :     -1.21275       2.17509      -0.17308
                        -----------------------------------------
Magnitude (a.u.)       :      2.49634
Magnitude (Debye)      :      6.34519



--------------------
Rotational spectrum 
--------------------
 
Rotational constants in cm-1:     4.739336     0.217843     0.217841 
Rotational constants in MHz : 142081.720312  6530.762146  6530.711007 

 Dipole components along the rotational axes: 
x,y,z [a.u.] :     2.496340    -0.000590     0.001309 
x,y,z [Debye]:     6.345193    -0.001499     0.003328 

 

Timings for individual modules:

Sum of individual times         ...      115.130 sec (=   1.919 min)
GTO integral calculation        ...        2.068 sec (=   0.034 min)   1.8 %
SCF iterations                  ...       97.045 sec (=   1.617 min)  84.3 %
SCF Gradient evaluation         ...       14.922 sec (=   0.249 min)  13.0 %
Geometry relaxation             ...        1.095 sec (=   0.018 min)   1.0 %
                             ****ORCA TERMINATED NORMALLY****
TOTAL RUN TIME: 0 days 0 hours 1 minutes 55 seconds 391 msec
