
                                 *****************
                                 * O   R   C   A *
                                 *****************

           --- An Ab Initio, DFT and Semiempirical electronic structure package ---

                  #######################################################
                  #                        -***-                        #
                  #          Department of theory and spectroscopy      #
                  #               Directorship: Frank Neese             #
                  #        Max Planck Institute fuer Kohlenforschung    #
                  #                Kaiser Wilhelm Platz 1               #
                  #                 D-45470 Muelheim/Ruhr               #
                  #                      Germany                        #
                  #                                                     #
                  #                  All rights reserved                #
                  #                        -***-                        #
                  #######################################################


                         Program Version 4.2.1 -  RELEASE  -


 With contributions from (in alphabetic order):
   Daniel Aravena         : Magnetic Suceptibility
   Michael Atanasov       : Ab Initio Ligand Field Theory (pilot matlab implementation)
   Alexander A. Auer      : GIAO ZORA, VPT2
   Ute Becker             : Parallelization
   Giovanni Bistoni       : ED, misc. LED, open-shell LED, HFLD
   Martin Brehm           : Molecular dynamics
   Dmytro Bykov           : SCF Hessian
   Vijay G. Chilkuri      : MRCI spin determinant printing, contributions to CSF-ICE
   Dipayan Datta          : RHF DLPNO-CCSD density
   Achintya Kumar Dutta   : EOM-CC, STEOM-CC
   Dmitry Ganyushin       : Spin-Orbit,Spin-Spin,Magnetic field MRCI
   Miquel Garcia          : C-PCM Hessian, Gaussian charge scheme
   Yang Guo               : DLPNO-NEVPT2, CIM, IAO-localization
   Andreas Hansen         : Spin unrestricted coupled pair/coupled cluster methods
   Benjamin Helmich-Paris : CASSCF linear response (MC-RPA)
   Lee Huntington         : MR-EOM, pCC
   Robert Izsak           : Overlap fitted RIJCOSX, COSX-SCS-MP3, EOM
   Christian Kollmar      : KDIIS, OOCD, Brueckner-CCSD(T), CCSD density
   Simone Kossmann        : Meta GGA functionals, TD-DFT gradient, OOMP2, MP2 Hessian
   Martin Krupicka        : AUTO-CI
   Lucas Lang             : DCDCAS
   Dagmar Lenk            : GEPOL surface, SMD
   Dimitrios Liakos       : Extrapolation schemes; Compound Job, initial MDCI parallelization
   Dimitrios Manganas     : Further ROCIS development; embedding schemes
   Dimitrios Pantazis     : SARC Basis sets
   Taras Petrenko         : DFT Hessian,TD-DFT gradient, ASA, ECA, R-Raman, ABS, FL, XAS/XES, NRVS
   Peter Pinski           : DLPNO-MP2, DLPNO-MP2 Gradient
   Christoph Reimann      : Effective Core Potentials
   Marius Retegan         : Local ZFS, SOC
   Christoph Riplinger    : Optimizer, TS searches, QM/MM, DLPNO-CCSD(T), (RO)-DLPNO pert. Triples
   Tobias Risthaus        : Range-separated hybrids, TD-DFT gradient, RPA, STAB
   Michael Roemelt        : Original ROCIS implementation
   Masaaki Saitow         : Open-shell DLPNO-CCSD energy and density
   Barbara Sandhoefer     : DKH picture change effects
   Avijit Sen             : IP-ROCIS
   Kantharuban Sivalingam : CASSCF convergence, NEVPT2, FIC-MRCI
   Bernardo de Souza      : ESD, SOC TD-DFT
   Georgi Stoychev        : AutoAux, RI-MP2 NMR
   Willem Van den Heuvel  : Paramagnetic NMR
   Boris Wezisla          : Elementary symmetry handling
   Frank Wennmohs         : Technical directorship


 We gratefully acknowledge several colleagues who have allowed us to
 interface, adapt or use parts of their codes:
   Stefan Grimme, W. Hujo, H. Kruse,             : VdW corrections, initial TS optimization,
                  C. Bannwarth                     DFT functionals, gCP, sTDA/sTD-DF
   Ed Valeev, F. Pavosevic, A. Kumar             : LibInt (2-el integral package), F12 methods
   Garnet Chan, S. Sharma, J. Yang, R. Olivares  : DMRG
   Ulf Ekstrom                                   : XCFun DFT Library
   Mihaly Kallay                                 : mrcc  (arbitrary order and MRCC methods)
   Andreas Klamt, Michael Diedenhofen            : otool_cosmo (COSMO solvation model)
   Jiri Pittner, Ondrej Demel                    : Mk-CCSD
   Frank Weinhold                                : gennbo (NPA and NBO analysis)
   Christopher J. Cramer and Donald G. Truhlar   : smd solvation model
   Lars Goerigk                                  : TD-DFT with DH, B97 family of functionals
   V. Asgeirsson, H. Jonsson                     : NEB implementation
   FAccTs GmbH                                   : IRC, NEB, NEB-TS, Multilevel, MM, QM/MM, CI optimization
   S Lehtola, MJT Oliveira, MAL Marques          : LibXC Library


 Your calculation uses the libint2 library for the computation of 2-el integrals
 For citations please refer to: http://libint.valeyev.net

 Your ORCA version has been built with support for libXC version: 4.2.3
 For citations please refer to: https://tddft.org/programs/libxc/

 This ORCA versions uses:
   CBLAS   interface :  Fast vector & matrix operations
   LAPACKE interface :  Fast linear algebra routines
   SCALAPACK package :  Parallel linear algebra routines


----- Orbital basis set information -----
Your calculation utilizes the basis: 6-311++G(2d,2p)
   H, Li - Ne  : R. Krishnan, J. S. Binkley, R. Seeger and J. A. Pople, J. Chem. Phys. 72, 650 (1980).
   Na - Ar     : A. D. McLean and G. S. Chandler J. Chem. Phys. 72, 5639, (1980).
   K  - Ca     : J.-P. Blaudeau, M. P. McGrath, L. A. Curtiss and L. Radom, J. Chem. Phys. 107, 5016 (1997).
   Ga - Kr     : L. A. Curtiss, M. P. McGrath, J.-P. Blandeau, N. E. Davis, R. C. Binning and L. Radom, J. Chem. Phys. 103, 6104 (1995).
   Pol./Diff.
   H, Li - Cl  : T. Clark, J. Chandrasekhar and P. v. R. Schleyer, J. Comp. Chem. 4, 294 (1983).
   H - Ne      : M. J. Frisch, J. A. Pople and J. S. Binkley, J. Chem. Phys. 80, 3265 (1984).

================================================================================
                                        WARNINGS
                       Please study these warnings very carefully!
================================================================================


INFO   : the flag for use of LIBINT has been found!

================================================================================
                                       INPUT FILE
================================================================================
NAME = orca.inp
|  1> !UHF 6-311++G(2d,2p) ENERGY
|  2> 
|  3> %paras
|  4> 	R = 0.4, 2.0, 33 # x-axis of H1
|  5> end
|  6> 
|  7> *xyz 0 1
|  8> H    0.0000000    0.0000000    0.0000000
|  9> H    {R}                0.0000000    0.0000000
| 10> **                         ****END OF INPUT****
================================================================================

                       ******************************
                       * Parameter Scan Calculation *
                       ******************************

Trajectory settings:
    -> SCF surface will be mapped

There are 1 parameter(s) to be scanned
             R: range=   0.40000000 ..   2.00000000  steps=   33
There will be   33 energy evaluations


         *************************************************************
                                TRAJECTORY STEP   1
                  R  :   0.40000000
         *************************************************************
---------------------------------
CARTESIAN COORDINATES (ANGSTROEM)
---------------------------------
  H      0.000000    0.000000    0.000000
  H      0.400000    0.000000    0.000000

----------------------------
CARTESIAN COORDINATES (A.U.)
----------------------------
  NO LB      ZA    FRAG     MASS         X           Y           Z
   0 H     1.0000    0     1.008    0.000000    0.000000    0.000000
   1 H     1.0000    0     1.008    0.755890    0.000000    0.000000

--------------------------------
INTERNAL COORDINATES (ANGSTROEM)
--------------------------------
 H      0   0   0     0.000000000000     0.00000000     0.00000000
 H      1   0   0     0.400000000000     0.00000000     0.00000000

---------------------------
INTERNAL COORDINATES (A.U.)
---------------------------
 H      0   0   0     0.000000000000     0.00000000     0.00000000
 H      1   0   0     0.755890453569     0.00000000     0.00000000

---------------------
BASIS SET INFORMATION
---------------------
There are 1 groups of distinct atoms

 Group   1 Type H   : 6s2p contracted to 4s2p pattern {3111/11}

Atom   0H    basis set group =>   1
Atom   1H    basis set group =>   1
------------------------------------------------------------------------------
                           ORCA GTO INTEGRAL CALCULATION
------------------------------------------------------------------------------

                         BASIS SET STATISTICS AND STARTUP INFO

 # of primitive gaussian shells          ...   16
 # of primitive gaussian functions       ...   24
 # of contracted shells                  ...   12
 # of contracted basis functions         ...   20
 Highest angular momentum                ...    1
 Maximum contraction depth               ...    3
 Integral package used                   ... LIBINT
 Integral threshhold            Thresh   ...  1.000e-10
 Primitive cut-off              TCut     ...  1.000e-11


------------------------------ INTEGRAL EVALUATION ----------------------------


 * One electron integrals 
 Pre-screening matrix                    ... done
 Shell pair data                         ... done (   0.000 sec)

-------------------------------------------------------------------------------
                                 ORCA SCF
-------------------------------------------------------------------------------

------------
SCF SETTINGS
------------
Hamiltonian:
 Ab initio Hamiltonian  Method          .... Hartree-Fock(GTOs)


General Settings:
 Integral files         IntName         .... orca
 Hartree-Fock type      HFTyp           .... UHF
 Total Charge           Charge          ....    0
 Multiplicity           Mult            ....    1
 Number of Electrons    NEL             ....    2
 Basis Dimension        Dim             ....   20
 Nuclear Repulsion      ENuc            ....      1.3229430208 Eh

Convergence Acceleration:
 DIIS                   CNVDIIS         .... on
   Start iteration      DIISMaxIt       ....    12
   Startup error        DIISStart       ....  0.200000
   # of expansion vecs  DIISMaxEq       ....     5
   Bias factor          DIISBfac        ....   1.050
   Max. coefficient     DIISMaxC        ....  10.000
 Newton-Raphson         CNVNR           .... off
 SOSCF                  CNVSOSCF        .... off
 Level Shifting         CNVShift        .... on
   Level shift para.    LevelShift      ....    0.2500
   Turn off err/grad.   ShiftErr        ....    0.0010
 Zerner damping         CNVZerner       .... off
 Static damping         CNVDamp         .... on
   Fraction old density DampFac         ....    0.7000
   Max. Damping (<1)    DampMax         ....    0.9800
   Min. Damping (>=0)   DampMin         ....    0.0000
   Turn off err/grad.   DampErr         ....    0.1000
 Fernandez-Rico         CNVRico         .... off

SCF Procedure:
 Maximum # iterations   MaxIter         ....   125
 SCF integral mode      SCFMode         .... Direct
   Integral package                     .... LIBINT
 Reset frequency        DirectResetFreq ....    20
 Integral Threshold     Thresh          ....  1.000e-10 Eh
 Primitive CutOff       TCut            ....  1.000e-11 Eh

Convergence Tolerance:
 Convergence Check Mode ConvCheckMode   .... Total+1el-Energy
 Convergence forced     ConvForced      .... 0
 Energy Change          TolE            ....  1.000e-06 Eh
 1-El. energy change                    ....  1.000e-03 Eh
 DIIS Error             TolErr          ....  1.000e-06


Diagonalization of the overlap matrix:
Smallest eigenvalue                        ... 1.269e-04
Time for diagonalization                   ...    0.771 sec
Threshold for overlap eigenvalues          ... 1.000e-08
Number of eigenvalues below threshold      ... 0
Time for construction of square roots      ...    0.000 sec
Total time needed                          ...    0.771 sec

-------------------
DFT GRID GENERATION
-------------------

General Integration Accuracy     IntAcc      ...  4.340
Radial Grid Type                 RadialGrid  ... Gauss-Chebyshev
Angular Grid (max. acc.)         AngularGrid ... Lebedev-110
Angular grid pruning method      GridPruning ... 3 (G Style)
Weight generation scheme         WeightScheme... Becke
Basis function cutoff            BFCut       ...    1.0000e-10
Integration weight cutoff        WCut        ...    1.0000e-14
Grids for H and He will be reduced by one unit

# of grid points (after initial pruning)     ...   1588 (   0.0 sec)
# of grid points (after weights+screening)   ...   1558 (   0.0 sec)
nearest neighbour list constructed           ...    0.0 sec
Grid point re-assignment to atoms done       ...    0.0 sec
Grid point division into batches done        ...    0.0 sec
Reduced shell lists constructed in    0.0 sec

Total number of grid points                  ...     1558
Total number of batches                      ...       26
Average number of points per batch           ...       59
Average number of grid points per atom       ...      779
Average number of shells per batch           ...    11.56 (96.30%)
Average number of basis functions per batch  ...    19.26 (96.30%)
Average number of large shells per batch     ...    11.41 (98.72%)
Average number of large basis fcns per batch ...    18.96 (98.46%)
Maximum spatial batch extension              ...  15.26, 21.59, 21.59 au
Average spatial batch extension              ...   4.39,  8.19,  8.26 au

Time for grid setup =    0.008 sec

------------------------------
INITIAL GUESS: MODEL POTENTIAL
------------------------------
Loading Hartree-Fock densities                     ... done
Calculating cut-offs                               ... done
Setting up the integral package                    ... done
Initializing the effective Hamiltonian             ... done
Starting the Coulomb interaction                   ... done (   0.0 sec)
Reading the grid                                   ... done
Mapping shells                                     ... done
Starting the XC term evaluation                    ... done (   0.0 sec)
Transforming the Hamiltonian                       ... done (   0.0 sec)
Diagonalizing the Hamiltonian                      ... done (   0.0 sec)
Back transforming the eigenvectors                 ... done (   0.0 sec)
Now organizing SCF variables                       ... done
                      ------------------
                      INITIAL GUESS DONE (   0.1 sec)
                      ------------------
--------------
SCF ITERATIONS
--------------
ITER       Energy         Delta-E        Max-DP      RMS-DP      [F,P]     Damp
               ***  Starting incremental Fock matrix formation  ***
  0     -0.9293579867   0.000000000000 0.00393963  0.00041297  0.1216147 0.7000
  1     -0.9321305493  -0.002772562566 0.00321227  0.00034399  0.0943672 0.7000
                               ***Turning on DIIS***
  2     -0.9342529003  -0.002122351045 0.00791995  0.00086293  0.0706861 0.0000
  3     -0.9416683419  -0.007415441558 0.00077761  0.00013395  0.0101643 0.0000
  4     -0.9402254425   0.001442899368 0.00030947  0.00004435  0.0020539 0.0000
  5     -0.9399201139   0.000305328559 0.00013722  0.00001653  0.0005510 0.0000
  6     -0.9397918764   0.000128237496 0.00000692  0.00000113  0.0000388 0.0000
  7     -0.9397876071   0.000004269300 0.00000093  0.00000019  0.0000026 0.0000
                 **** Energy Check signals convergence ****

               *****************************************************
               *                     SUCCESS                       *
               *           SCF CONVERGED AFTER   8 CYCLES          *
               *****************************************************


----------------
TOTAL SCF ENERGY
----------------

Total Energy       :           -0.93978762 Eh             -25.57292 eV

Components:
Nuclear Repulsion  :            1.32294302 Eh              35.99911 eV
Electronic Energy  :           -2.26273064 Eh             -61.57203 eV
One Electron Energy:           -3.07325493 Eh             -83.62752 eV
Two Electron Energy:            0.81052429 Eh              22.05549 eV

Virial components:
Potential Energy   :           -2.58472896 Eh             -70.33405 eV
Kinetic Energy     :            1.64494134 Eh              44.76113 eV
Virial Ratio       :            1.57131984


---------------
SCF CONVERGENCE
---------------

  Last Energy change         ...   -1.4952e-08  Tolerance :   1.0000e-06
  Last MAX-Density change    ...    1.1759e-07  Tolerance :   1.0000e-05
  Last RMS-Density change    ...    2.3618e-08  Tolerance :   1.0000e-06
  Last DIIS Error            ...    1.4621e-07  Tolerance :   1.0000e-06

             **** THE GBW FILE WAS UPDATED (orca.gbw) ****
             **** DENSITY FILE WAS UPDATED (orca.scfp) ****
             **** ENERGY FILE WAS UPDATED (orca.en.tmp) ****
----------------------
UHF SPIN CONTAMINATION
----------------------

Expectation value of <S**2>     :     0.000000
Ideal value S*(S+1) for S=0.0   :     0.000000
Deviation                       :     0.000000

             **** THE GBW FILE WAS UPDATED (orca.gbw) ****
             **** DENSITY FILE WAS UPDATED (orca.scfp) ****
----------------
ORBITAL ENERGIES
----------------
                 SPIN UP ORBITALS
  NO   OCC          E(Eh)            E(eV) 
   0   1.0000      -0.726103       -19.7583 
   1   0.0000       0.068071         1.8523 
   2   0.0000       0.076548         2.0830 
   3   0.0000       0.282338         7.6828 
   4   0.0000       0.417066        11.3489 
   5   0.0000       0.721549        19.6343 
   6   0.0000       0.721549        19.6343 
   7   0.0000       0.798505        21.7284 
   8   0.0000       1.194013        32.4907 
   9   0.0000       1.194013        32.4907 
  10   0.0000       1.209213        32.9044 
  11   0.0000       1.700499        46.2729 
  12   0.0000       2.240143        60.9574 
  13   0.0000       3.661677        99.6393 
  14   0.0000       3.661677        99.6393 
  15   0.0000       3.684786       100.2681 
  16   0.0000       5.011593       136.3724 
  17   0.0000       5.103566       138.8751 
  18   0.0000       5.103566       138.8751 
  19   0.0000      11.218635       305.2746 

                 SPIN DOWN ORBITALS
  NO   OCC          E(Eh)            E(eV) 
   0   1.0000      -0.726103       -19.7583 
   1   0.0000       0.068071         1.8523 
   2   0.0000       0.076548         2.0830 
   3   0.0000       0.282338         7.6828 
   4   0.0000       0.417066        11.3489 
   5   0.0000       0.721549        19.6343 
   6   0.0000       0.721549        19.6343 
   7   0.0000       0.798505        21.7284 
   8   0.0000       1.194013        32.4907 
   9   0.0000       1.194013        32.4907 
  10   0.0000       1.209213        32.9044 
  11   0.0000       1.700499        46.2729 
  12   0.0000       2.240143        60.9574 
  13   0.0000       3.661677        99.6393 
  14   0.0000       3.661677        99.6393 
  15   0.0000       3.684786       100.2681 
  16   0.0000       5.011593       136.3724 
  17   0.0000       5.103566       138.8751 
  18   0.0000       5.103566       138.8751 
  19   0.0000      11.218635       305.2746 

                    ********************************
                    * MULLIKEN POPULATION ANALYSIS *
                    ********************************

--------------------------------------------
MULLIKEN ATOMIC CHARGES AND SPIN POPULATIONS
--------------------------------------------
   0 H :    0.000000    0.000000
   1 H :   -0.000000    0.000000
Sum of atomic charges         :    0.0000000
Sum of atomic spin populations:    0.0000000

-----------------------------------------------------
MULLIKEN REDUCED ORBITAL CHARGES AND SPIN POPULATIONS
-----------------------------------------------------
CHARGE
  0 H s       :     0.992927  s :     0.992927
      pz      :     0.000000  p :     0.007073
      px      :     0.007073
      py      :    -0.000000
  1 H s       :     0.992927  s :     0.992927
      pz      :    -0.000000  p :     0.007073
      px      :     0.007073
      py      :     0.000000

SPIN
  0 H s       :     0.000000  s :     0.000000
      pz      :     0.000000  p :     0.000000
      px      :     0.000000
      py      :     0.000000
  1 H s       :     0.000000  s :     0.000000
      pz      :     0.000000  p :     0.000000
      px      :     0.000000
      py      :     0.000000


                     *******************************
                     * LOEWDIN POPULATION ANALYSIS *
                     *******************************

-------------------------------------------
LOEWDIN ATOMIC CHARGES AND SPIN POPULATIONS
-------------------------------------------
   0 H :    0.000000    0.000000
   1 H :   -0.000000    0.000000

----------------------------------------------------
LOEWDIN REDUCED ORBITAL CHARGES AND SPIN POPULATIONS
----------------------------------------------------
CHARGE
  0 H s       :     0.967070  s :     0.967070
      pz      :     0.000000  p :     0.032930
      px      :     0.032930
      py      :     0.000000
  1 H s       :     0.967070  s :     0.967070
      pz      :     0.000000  p :     0.032930
      px      :     0.032930
      py      :     0.000000

SPIN
  0 H s       :     0.000000  s :     0.000000
      pz      :     0.000000  p :     0.000000
      px      :     0.000000
      py      :     0.000000
  1 H s       :     0.000000  s :     0.000000
      pz      :     0.000000  p :     0.000000
      px      :     0.000000
      py      :     0.000000


                      *****************************
                      * MAYER POPULATION ANALYSIS *
                      *****************************

  NA   - Mulliken gross atomic population
  ZA   - Total nuclear charge
  QA   - Mulliken gross atomic charge
  VA   - Mayer's total valence
  BVA  - Mayer's bonded valence
  FA   - Mayer's free valence

  ATOM       NA         ZA         QA         VA         BVA        FA
  0 H      1.0000     1.0000     0.0000     1.0000     1.0000     0.0000
  1 H      1.0000     1.0000    -0.0000     1.0000     1.0000     0.0000

  Mayer bond orders larger than 0.100000
B(  0-H ,  1-H ) :   1.0000 

-------
TIMINGS
-------

Total SCF time: 0 days 0 hours 0 min 1 sec 

Total time                  ....       1.630 sec
Sum of individual times     ....       0.678 sec  ( 41.6%)

Fock matrix formation       ....       0.560 sec  ( 34.4%)
Diagonalization             ....       0.001 sec  (  0.1%)
Density matrix formation    ....       0.000 sec  (  0.0%)
Population analysis         ....       0.001 sec  (  0.0%)
Initial guess               ....       0.107 sec  (  6.6%)
Orbital Transformation      ....       0.000 sec  (  0.0%)
Orbital Orthonormalization  ....       0.000 sec  (  0.0%)
DIIS solution               ....       0.001 sec  (  0.1%)

-------------------------   --------------------
FINAL SINGLE POINT ENERGY        -0.939787622089
-------------------------   --------------------

Storing actual gbw-file in orca.001.gbw ... done

                            ***************************************
                            *     ORCA property calculations      *
                            ***************************************

                                    ---------------------
                                    Active property flags
                                    ---------------------
   (+) Dipole Moment


------------------------------------------------------------------------------
                       ORCA ELECTRIC PROPERTIES CALCULATION
------------------------------------------------------------------------------

Dipole Moment Calculation                       ... on
Quadrupole Moment Calculation                   ... off
Polarizability Calculation                      ... off
GBWName                                         ... orca.gbw
Electron density file                           ... orca.scfp
The origin for moment calculation is the CENTER OF MASS  = ( 0.377945,  0.000000  0.000000)

-------------
DIPOLE MOMENT
-------------
                                X             Y             Z
Electronic contribution:     -0.00000       0.00000       0.00000
Nuclear contribution   :      0.00000       0.00000       0.00000
                        -----------------------------------------
Total Dipole Moment    :     -0.00000       0.00000       0.00000
                        -----------------------------------------
Magnitude (a.u.)       :      0.00000
Magnitude (Debye)      :      0.00000



--------------------
Rotational spectrum 
--------------------
 
Rotational constants in cm-1:     0.000000   209.048176   209.048176 
Rotational constants in MHz :     0.000000 6267106.642963 6267106.642963 

 Dipole components along the rotational axes: 
x,y,z [a.u.] :    -0.000000     0.000000     0.000000 
x,y,z [Debye]:    -0.000000     0.000000     0.000000 

 

         *************************************************************
                                TRAJECTORY STEP   2
                  R  :   0.45000000
         *************************************************************
---------------------------------
CARTESIAN COORDINATES (ANGSTROEM)
---------------------------------
  H      0.000000    0.000000    0.000000
  H      0.450000    0.000000    0.000000

----------------------------
CARTESIAN COORDINATES (A.U.)
----------------------------
  NO LB      ZA    FRAG     MASS         X           Y           Z
   0 H     1.0000    0     1.008    0.000000    0.000000    0.000000
   1 H     1.0000    0     1.008    0.850377    0.000000    0.000000

--------------------------------
INTERNAL COORDINATES (ANGSTROEM)
--------------------------------
 H      0   0   0     0.000000000000     0.00000000     0.00000000
 H      1   0   0     0.450000000000     0.00000000     0.00000000

---------------------------
INTERNAL COORDINATES (A.U.)
---------------------------
 H      0   0   0     0.000000000000     0.00000000     0.00000000
 H      1   0   0     0.850376760265     0.00000000     0.00000000


Diagonalization of the overlap matrix:
Smallest eigenvalue                        ... 1.812e-04
Time for diagonalization                   ...    0.000 sec
Threshold for overlap eigenvalues          ... 1.000e-08
Number of eigenvalues below threshold      ... 0
Time for construction of square roots      ...    0.000 sec
Total time needed                          ...    0.000 sec

--------------
SCF ITERATIONS
--------------
ITER       Energy         Delta-E        Max-DP      RMS-DP      [F,P]     Damp
               ***  Starting incremental Fock matrix formation  ***
  0     -1.0131333634   0.000000000000 0.00138677  0.00014876  0.0374026 0.7000
  1     -1.0134138924  -0.000280529087 0.00112963  0.00012101  0.0288344 0.7000
                               ***Turning on DIIS***
  2     -1.0136271149  -0.000213222453 0.00279196  0.00030089  0.0214894 0.0000
  3     -1.0146791002  -0.001051985289 0.00030309  0.00004506  0.0029141 0.0000
  4     -1.0142958225   0.000383277697 0.00012656  0.00001747  0.0005669 0.0000
  5     -1.0141892200   0.000106602442 0.00002363  0.00000253  0.0000681 0.0000
  6     -1.0141793245   0.000009895592 0.00000086  0.00000015  0.0000051 0.0000
                 **** Energy Check signals convergence ****

               *****************************************************
               *                     SUCCESS                       *
               *           SCF CONVERGED AFTER   7 CYCLES          *
               *****************************************************

Total Energy       :           -1.01417871 Eh             -27.59721 eV
  Last Energy change         ...    6.1487e-07  Tolerance :   1.0000e-06
  Last MAX-Density change    ...    1.4371e-07  Tolerance :   1.0000e-05
             **** THE GBW FILE WAS UPDATED (orca.gbw) ****
             **** DENSITY FILE WAS UPDATED (orca.scfp) ****
             **** ENERGY FILE WAS UPDATED (orca.en.tmp) ****
----------------------
UHF SPIN CONTAMINATION
----------------------

Expectation value of <S**2>     :    -0.000000
Ideal value S*(S+1) for S=0.0   :     0.000000
Deviation                       :    -0.000000

             **** THE GBW FILE WAS UPDATED (orca.gbw) ****
             **** DENSITY FILE WAS UPDATED (orca.scfp) ****
Total SCF time: 0 days 0 hours 0 min 0 sec 

-------------------------   --------------------
FINAL SINGLE POINT ENERGY        -1.014178709587
-------------------------   --------------------

Storing actual gbw-file in orca.002.gbw ... done

                            ***************************************
                            *     ORCA property calculations      *
                            ***************************************

                                    ---------------------
                                    Active property flags
                                    ---------------------
   (+) Dipole Moment


------------------------------------------------------------------------------
                       ORCA ELECTRIC PROPERTIES CALCULATION
------------------------------------------------------------------------------

Dipole Moment Calculation                       ... on
Quadrupole Moment Calculation                   ... off
Polarizability Calculation                      ... off
GBWName                                         ... orca.gbw
Electron density file                           ... orca.scfp
The origin for moment calculation is the CENTER OF MASS  = ( 0.425188,  0.000000  0.000000)

-------------
DIPOLE MOMENT
-------------
                                X             Y             Z
Electronic contribution:     -0.00000      -0.00000       0.00000
Nuclear contribution   :      0.00000       0.00000       0.00000
                        -----------------------------------------
Total Dipole Moment    :     -0.00000      -0.00000       0.00000
                        -----------------------------------------
Magnitude (a.u.)       :      0.00000
Magnitude (Debye)      :      0.00000



--------------------
Rotational spectrum 
--------------------
 
Rotational constants in cm-1:     0.000000   165.173867   165.173867 
Rotational constants in MHz :     0.000000 4951787.964811 4951787.964811 

 Dipole components along the rotational axes: 
x,y,z [a.u.] :    -0.000000    -0.000000     0.000000 
x,y,z [Debye]:    -0.000000    -0.000000     0.000000 

 

         *************************************************************
                                TRAJECTORY STEP   3
                  R  :   0.50000000
         *************************************************************
---------------------------------
CARTESIAN COORDINATES (ANGSTROEM)
---------------------------------
  H      0.000000    0.000000    0.000000
  H      0.500000    0.000000    0.000000

----------------------------
CARTESIAN COORDINATES (A.U.)
----------------------------
  NO LB      ZA    FRAG     MASS         X           Y           Z
   0 H     1.0000    0     1.008    0.000000    0.000000    0.000000
   1 H     1.0000    0     1.008    0.944863    0.000000    0.000000

--------------------------------
INTERNAL COORDINATES (ANGSTROEM)
--------------------------------
 H      0   0   0     0.000000000000     0.00000000     0.00000000
 H      1   0   0     0.500000000000     0.00000000     0.00000000

---------------------------
INTERNAL COORDINATES (A.U.)
---------------------------
 H      0   0   0     0.000000000000     0.00000000     0.00000000
 H      1   0   0     0.944863066961     0.00000000     0.00000000


Diagonalization of the overlap matrix:
Smallest eigenvalue                        ... 2.846e-04
Time for diagonalization                   ...    0.000 sec
Threshold for overlap eigenvalues          ... 1.000e-08
Number of eigenvalues below threshold      ... 0
Time for construction of square roots      ...    0.000 sec
Total time needed                          ...    0.000 sec

--------------
SCF ITERATIONS
--------------
ITER       Energy         Delta-E        Max-DP      RMS-DP      [F,P]     Damp
               ***  Starting incremental Fock matrix formation  ***
  0     -1.0625448473   0.000000000000 0.00124540  0.00013507  0.0344086 0.7000
  1     -1.0627848901  -0.000240042715 0.00101357  0.00011057  0.0265740 0.7000
                               ***Turning on DIIS***
  2     -1.0629680854  -0.000183195312 0.00250544  0.00027621  0.0198412 0.0000
  3     -1.0639239377  -0.000955852294 0.00027434  0.00004438  0.0027798 0.0000
  4     -1.0635632328   0.000360704834 0.00013878  0.00001799  0.0005484 0.0000
  5     -1.0634552285   0.000108004372 0.00002406  0.00000252  0.0000685 0.0000
  6     -1.0634453153   0.000009913136 0.00000100  0.00000016  0.0000051 0.0000
                 **** Energy Check signals convergence ****

               *****************************************************
               *                     SUCCESS                       *
               *           SCF CONVERGED AFTER   7 CYCLES          *
               *****************************************************

Total Energy       :           -1.06344471 Eh             -28.93780 eV
  Last Energy change         ...    6.1031e-07  Tolerance :   1.0000e-06
  Last MAX-Density change    ...    1.7301e-07  Tolerance :   1.0000e-05
             **** THE GBW FILE WAS UPDATED (orca.gbw) ****
             **** DENSITY FILE WAS UPDATED (orca.scfp) ****
             **** ENERGY FILE WAS UPDATED (orca.en.tmp) ****
----------------------
UHF SPIN CONTAMINATION
----------------------

Expectation value of <S**2>     :     0.000000
Ideal value S*(S+1) for S=0.0   :     0.000000
Deviation                       :     0.000000

             **** THE GBW FILE WAS UPDATED (orca.gbw) ****
             **** DENSITY FILE WAS UPDATED (orca.scfp) ****
Total SCF time: 0 days 0 hours 0 min 0 sec 

-------------------------   --------------------
FINAL SINGLE POINT ENERGY        -1.063444705011
-------------------------   --------------------

Storing actual gbw-file in orca.003.gbw ... done

                            ***************************************
                            *     ORCA property calculations      *
                            ***************************************

                                    ---------------------
                                    Active property flags
                                    ---------------------
   (+) Dipole Moment


------------------------------------------------------------------------------
                       ORCA ELECTRIC PROPERTIES CALCULATION
------------------------------------------------------------------------------

Dipole Moment Calculation                       ... on
Quadrupole Moment Calculation                   ... off
Polarizability Calculation                      ... off
GBWName                                         ... orca.gbw
Electron density file                           ... orca.scfp
The origin for moment calculation is the CENTER OF MASS  = ( 0.472432,  0.000000  0.000000)

-------------
DIPOLE MOMENT
-------------
                                X             Y             Z
Electronic contribution:      0.00000      -0.00000       0.00000
Nuclear contribution   :      0.00000       0.00000       0.00000
                        -----------------------------------------
Total Dipole Moment    :      0.00000      -0.00000       0.00000
                        -----------------------------------------
Magnitude (a.u.)       :      0.00000
Magnitude (Debye)      :      0.00000



--------------------
Rotational spectrum 
--------------------
 
Rotational constants in cm-1:     0.000000   133.790832   133.790832 
Rotational constants in MHz :     0.000000 4010948.251497 4010948.251497 

 Dipole components along the rotational axes: 
x,y,z [a.u.] :     0.000000    -0.000000     0.000000 
x,y,z [Debye]:     0.000000    -0.000000     0.000000 

 

         *************************************************************
                                TRAJECTORY STEP   4
                  R  :   0.55000000
         *************************************************************
---------------------------------
CARTESIAN COORDINATES (ANGSTROEM)
---------------------------------
  H      0.000000    0.000000    0.000000
  H      0.550000    0.000000    0.000000

----------------------------
CARTESIAN COORDINATES (A.U.)
----------------------------
  NO LB      ZA    FRAG     MASS         X           Y           Z
   0 H     1.0000    0     1.008    0.000000    0.000000    0.000000
   1 H     1.0000    0     1.008    1.039349    0.000000    0.000000

--------------------------------
INTERNAL COORDINATES (ANGSTROEM)
--------------------------------
 H      0   0   0     0.000000000000     0.00000000     0.00000000
 H      1   0   0     0.550000000000     0.00000000     0.00000000

---------------------------
INTERNAL COORDINATES (A.U.)
---------------------------
 H      0   0   0     0.000000000000     0.00000000     0.00000000
 H      1   0   0     1.039349373657     0.00000000     0.00000000


Diagonalization of the overlap matrix:
Smallest eigenvalue                        ... 4.721e-04
Time for diagonalization                   ...    0.000 sec
Threshold for overlap eigenvalues          ... 1.000e-08
Number of eigenvalues below threshold      ... 0
Time for construction of square roots      ...    0.000 sec
Total time needed                          ...    0.000 sec

--------------
SCF ITERATIONS
--------------
ITER       Energy         Delta-E        Max-DP      RMS-DP      [F,P]     Damp
               ***  Starting incremental Fock matrix formation  ***
  0     -1.0947203541   0.000000000000 0.00111796  0.00012343  0.0315980 0.7000
  1     -1.0949263678  -0.000206013742 0.00090921  0.00010189  0.0244429 0.7000
                               ***Turning on DIIS***
  2     -1.0950842391  -0.000157871291 0.00224797  0.00025602  0.0182813 0.0000
  3     -1.0959578613  -0.000873622202 0.00024889  0.00004423  0.0026383 0.0000
  4     -1.0956158320   0.000342029288 0.00014876  0.00001838  0.0005242 0.0000
  5     -1.0955078247   0.000108007278 0.00002421  0.00000251  0.0000682 0.0000
  6     -1.0954979941   0.000009830658 0.00000115  0.00000018  0.0000050 0.0000
                 **** Energy Check signals convergence ****

               *****************************************************
               *                     SUCCESS                       *
               *           SCF CONVERGED AFTER   7 CYCLES          *
               *****************************************************

Total Energy       :           -1.09549739 Eh             -29.81000 eV
  Last Energy change         ...    6.0503e-07  Tolerance :   1.0000e-06
  Last MAX-Density change    ...    2.0440e-07  Tolerance :   1.0000e-05
             **** THE GBW FILE WAS UPDATED (orca.gbw) ****
             **** DENSITY FILE WAS UPDATED (orca.scfp) ****
             **** ENERGY FILE WAS UPDATED (orca.en.tmp) ****
----------------------
UHF SPIN CONTAMINATION
----------------------

Expectation value of <S**2>     :    -0.000000
Ideal value S*(S+1) for S=0.0   :     0.000000
Deviation                       :    -0.000000

             **** THE GBW FILE WAS UPDATED (orca.gbw) ****
             **** DENSITY FILE WAS UPDATED (orca.scfp) ****
Total SCF time: 0 days 0 hours 0 min 0 sec 

-------------------------   --------------------
FINAL SINGLE POINT ENERGY        -1.095497389037
-------------------------   --------------------

Storing actual gbw-file in orca.004.gbw ... done

                            ***************************************
                            *     ORCA property calculations      *
                            ***************************************

                                    ---------------------
                                    Active property flags
                                    ---------------------
   (+) Dipole Moment


------------------------------------------------------------------------------
                       ORCA ELECTRIC PROPERTIES CALCULATION
------------------------------------------------------------------------------

Dipole Moment Calculation                       ... on
Quadrupole Moment Calculation                   ... off
Polarizability Calculation                      ... off
GBWName                                         ... orca.gbw
Electron density file                           ... orca.scfp
The origin for moment calculation is the CENTER OF MASS  = ( 0.519675,  0.000000  0.000000)

-------------
DIPOLE MOMENT
-------------
                                X             Y             Z
Electronic contribution:     -0.00000      -0.00000      -0.00000
Nuclear contribution   :      0.00000       0.00000       0.00000
                        -----------------------------------------
Total Dipole Moment    :     -0.00000      -0.00000      -0.00000
                        -----------------------------------------
Magnitude (a.u.)       :      0.00000
Magnitude (Debye)      :      0.00000



--------------------
Rotational spectrum 
--------------------
 
Rotational constants in cm-1:     0.000000   110.570936   110.570936 
Rotational constants in MHz :     0.000000 3314833.265700 3314833.265700 

 Dipole components along the rotational axes: 
x,y,z [a.u.] :    -0.000000    -0.000000    -0.000000 
x,y,z [Debye]:    -0.000000    -0.000000    -0.000000 

 

         *************************************************************
                                TRAJECTORY STEP   5
                  R  :   0.60000000
         *************************************************************
---------------------------------
CARTESIAN COORDINATES (ANGSTROEM)
---------------------------------
  H      0.000000    0.000000    0.000000
  H      0.600000    0.000000    0.000000

----------------------------
CARTESIAN COORDINATES (A.U.)
----------------------------
  NO LB      ZA    FRAG     MASS         X           Y           Z
   0 H     1.0000    0     1.008    0.000000    0.000000    0.000000
   1 H     1.0000    0     1.008    1.133836    0.000000    0.000000

--------------------------------
INTERNAL COORDINATES (ANGSTROEM)
--------------------------------
 H      0   0   0     0.000000000000     0.00000000     0.00000000
 H      1   0   0     0.600000000000     0.00000000     0.00000000

---------------------------
INTERNAL COORDINATES (A.U.)
---------------------------
 H      0   0   0     0.000000000000     0.00000000     0.00000000
 H      1   0   0     1.133835680353     0.00000000     0.00000000


Diagonalization of the overlap matrix:
Smallest eigenvalue                        ... 7.914e-04
Time for diagonalization                   ...    0.000 sec
Threshold for overlap eigenvalues          ... 1.000e-08
Number of eigenvalues below threshold      ... 0
Time for construction of square roots      ...    0.000 sec
Total time needed                          ...    0.000 sec

--------------
SCF ITERATIONS
--------------
ITER       Energy         Delta-E        Max-DP      RMS-DP      [F,P]     Damp
               ***  Starting incremental Fock matrix formation  ***
  0     -1.1148165237   0.000000000000 0.00100482  0.00011352  0.0290258 0.7000
  1     -1.1149942570  -0.000177733227 0.00081678  0.00009465  0.0224852 0.7000
                               ***Turning on DIIS***
  2     -1.1151310021  -0.000136745179 0.00202004  0.00023939  0.0168434 0.0000
  3     -1.1159342173  -0.000803215146 0.00022660  0.00004431  0.0024962 0.0000
  4     -1.1156079039   0.000326313356 0.00015642  0.00001861  0.0004987 0.0000
  5     -1.1155012657   0.000106638231 0.00002412  0.00000249  0.0000676 0.0000
  6     -1.1154915594   0.000009706347 0.00000129  0.00000021  0.0000050 0.0000
                 **** Energy Check signals convergence ****

               *****************************************************
               *                     SUCCESS                       *
               *           SCF CONVERGED AFTER   7 CYCLES          *
               *****************************************************

Total Energy       :           -1.11549096 Eh             -30.35405 eV
  Last Energy change         ...    6.0135e-07  Tolerance :   1.0000e-06
  Last MAX-Density change    ...    2.3664e-07  Tolerance :   1.0000e-05
             **** THE GBW FILE WAS UPDATED (orca.gbw) ****
             **** DENSITY FILE WAS UPDATED (orca.scfp) ****
             **** ENERGY FILE WAS UPDATED (orca.en.tmp) ****
----------------------
UHF SPIN CONTAMINATION
----------------------

Expectation value of <S**2>     :    -0.000000
Ideal value S*(S+1) for S=0.0   :     0.000000
Deviation                       :    -0.000000

             **** THE GBW FILE WAS UPDATED (orca.gbw) ****
             **** DENSITY FILE WAS UPDATED (orca.scfp) ****
Total SCF time: 0 days 0 hours 0 min 0 sec 

-------------------------   --------------------
FINAL SINGLE POINT ENERGY        -1.115490958010
-------------------------   --------------------

Storing actual gbw-file in orca.005.gbw ... done

                            ***************************************
                            *     ORCA property calculations      *
                            ***************************************

                                    ---------------------
                                    Active property flags
                                    ---------------------
   (+) Dipole Moment


------------------------------------------------------------------------------
                       ORCA ELECTRIC PROPERTIES CALCULATION
------------------------------------------------------------------------------

Dipole Moment Calculation                       ... on
Quadrupole Moment Calculation                   ... off
Polarizability Calculation                      ... off
GBWName                                         ... orca.gbw
Electron density file                           ... orca.scfp
The origin for moment calculation is the CENTER OF MASS  = ( 0.566918,  0.000000  0.000000)

-------------
DIPOLE MOMENT
-------------
                                X             Y             Z
Electronic contribution:      0.00000       0.00000       0.00000
Nuclear contribution   :      0.00000       0.00000       0.00000
                        -----------------------------------------
Total Dipole Moment    :      0.00000       0.00000       0.00000
                        -----------------------------------------
Magnitude (a.u.)       :      0.00000
Magnitude (Debye)      :      0.00000



--------------------
Rotational spectrum 
--------------------
 
Rotational constants in cm-1:     0.000000    92.910300    92.910300 
Rotational constants in MHz :     0.000000 2785380.730206 2785380.730206 

 Dipole components along the rotational axes: 
x,y,z [a.u.] :     0.000000     0.000000     0.000000 
x,y,z [Debye]:     0.000000     0.000000     0.000000 

 

         *************************************************************
                                TRAJECTORY STEP   6
                  R  :   0.65000000
         *************************************************************
---------------------------------
CARTESIAN COORDINATES (ANGSTROEM)
---------------------------------
  H      0.000000    0.000000    0.000000
  H      0.650000    0.000000    0.000000

----------------------------
CARTESIAN COORDINATES (A.U.)
----------------------------
  NO LB      ZA    FRAG     MASS         X           Y           Z
   0 H     1.0000    0     1.008    0.000000    0.000000    0.000000
   1 H     1.0000    0     1.008    1.228322    0.000000    0.000000

--------------------------------
INTERNAL COORDINATES (ANGSTROEM)
--------------------------------
 H      0   0   0     0.000000000000     0.00000000     0.00000000
 H      1   0   0     0.650000000000     0.00000000     0.00000000

---------------------------
INTERNAL COORDINATES (A.U.)
---------------------------
 H      0   0   0     0.000000000000     0.00000000     0.00000000
 H      1   0   0     1.228321987049     0.00000000     0.00000000


Diagonalization of the overlap matrix:
Smallest eigenvalue                        ... 1.305e-03
Time for diagonalization                   ...    0.000 sec
Threshold for overlap eigenvalues          ... 1.000e-08
Number of eigenvalues below threshold      ... 0
Time for construction of square roots      ...    0.000 sec
Total time needed                          ...    0.000 sec

--------------
SCF ITERATIONS
--------------
ITER       Energy         Delta-E        Max-DP      RMS-DP      [F,P]     Damp
               ***  Starting incremental Fock matrix formation  ***
  0     -1.1263093054   0.000000000000 0.00090524  0.00010506  0.0267085 0.7000
  1     -1.1264636103  -0.000154304870 0.00073559  0.00008857  0.0207152 0.7000
                               ***Turning on DIIS***
  2     -1.1265827795  -0.000119169207 0.00181993  0.00022556  0.0155393 0.0000
  3     -1.1273245851  -0.000741805566 0.00022904  0.00004440  0.0023575 0.0000
  4     -1.1270124345   0.000312150519 0.00016188  0.00001870  0.0004910 0.0000
  5     -1.1269084171   0.000104017426 0.00002386  0.00000248  0.0000666 0.0000
  6     -1.1268988347   0.000009582448 0.00000143  0.00000023  0.0000049 0.0000
                 **** Energy Check signals convergence ****

               *****************************************************
               *                     SUCCESS                       *
               *           SCF CONVERGED AFTER   7 CYCLES          *
               *****************************************************

Total Energy       :           -1.12689823 Eh             -30.66446 eV
  Last Energy change         ...    6.0061e-07  Tolerance :   1.0000e-06
  Last MAX-Density change    ...    2.6832e-07  Tolerance :   1.0000e-05
             **** THE GBW FILE WAS UPDATED (orca.gbw) ****
             **** DENSITY FILE WAS UPDATED (orca.scfp) ****
             **** ENERGY FILE WAS UPDATED (orca.en.tmp) ****
----------------------
UHF SPIN CONTAMINATION
----------------------

Expectation value of <S**2>     :     0.000000
Ideal value S*(S+1) for S=0.0   :     0.000000
Deviation                       :     0.000000

             **** THE GBW FILE WAS UPDATED (orca.gbw) ****
             **** DENSITY FILE WAS UPDATED (orca.scfp) ****
Total SCF time: 0 days 0 hours 0 min 0 sec 

-------------------------   --------------------
FINAL SINGLE POINT ENERGY        -1.126898234063
-------------------------   --------------------

Storing actual gbw-file in orca.006.gbw ... done

                            ***************************************
                            *     ORCA property calculations      *
                            ***************************************

                                    ---------------------
                                    Active property flags
                                    ---------------------
   (+) Dipole Moment


------------------------------------------------------------------------------
                       ORCA ELECTRIC PROPERTIES CALCULATION
------------------------------------------------------------------------------

Dipole Moment Calculation                       ... on
Quadrupole Moment Calculation                   ... off
Polarizability Calculation                      ... off
GBWName                                         ... orca.gbw
Electron density file                           ... orca.scfp
The origin for moment calculation is the CENTER OF MASS  = ( 0.614161,  0.000000  0.000000)

-------------
DIPOLE MOMENT
-------------
                                X             Y             Z
Electronic contribution:      0.00000      -0.00000       0.00000
Nuclear contribution   :      0.00000       0.00000       0.00000
                        -----------------------------------------
Total Dipole Moment    :      0.00000      -0.00000       0.00000
                        -----------------------------------------
Magnitude (a.u.)       :      0.00000
Magnitude (Debye)      :      0.00000



--------------------
Rotational spectrum 
--------------------
 
Rotational constants in cm-1:     0.000000    79.166173    79.166173 
Rotational constants in MHz :     0.000000 2373342.160649 2373342.160649 

 Dipole components along the rotational axes: 
x,y,z [a.u.] :     0.000000    -0.000000     0.000000 
x,y,z [Debye]:     0.000000    -0.000000     0.000000 

 

         *************************************************************
                                TRAJECTORY STEP   7
                  R  :   0.70000000
         *************************************************************
---------------------------------
CARTESIAN COORDINATES (ANGSTROEM)
---------------------------------
  H      0.000000    0.000000    0.000000
  H      0.700000    0.000000    0.000000

----------------------------
CARTESIAN COORDINATES (A.U.)
----------------------------
  NO LB      ZA    FRAG     MASS         X           Y           Z
   0 H     1.0000    0     1.008    0.000000    0.000000    0.000000
   1 H     1.0000    0     1.008    1.322808    0.000000    0.000000

--------------------------------
INTERNAL COORDINATES (ANGSTROEM)
--------------------------------
 H      0   0   0     0.000000000000     0.00000000     0.00000000
 H      1   0   0     0.700000000000     0.00000000     0.00000000

---------------------------
INTERNAL COORDINATES (A.U.)
---------------------------
 H      0   0   0     0.000000000000     0.00000000     0.00000000
 H      1   0   0     1.322808293745     0.00000000     0.00000000


Diagonalization of the overlap matrix:
Smallest eigenvalue                        ... 2.087e-03
Time for diagonalization                   ...    0.000 sec
Threshold for overlap eigenvalues          ... 1.000e-08
Number of eigenvalues below threshold      ... 0
Time for construction of square roots      ...    0.000 sec
Total time needed                          ...    0.000 sec

--------------
SCF ITERATIONS
--------------
ITER       Energy         Delta-E        Max-DP      RMS-DP      [F,P]     Damp
               ***  Starting incremental Fock matrix formation  ***
  0     -1.1316030708   0.000000000000 0.00081783  0.00009781  0.0246384 0.7000
  1     -1.1317378988  -0.000134828038 0.00066444  0.00008341  0.0191288 0.7000
                               ***Turning on DIIS***
  2     -1.1318423892  -0.000104490329 0.00164460  0.00021386  0.0143668 0.0000
  3     -1.1325290959  -0.000686706736 0.00025077  0.00004441  0.0022245 0.0000
  4     -1.1322309289   0.000298167010 0.00016543  0.00001866  0.0004838 0.0000
  5     -1.1321305261   0.000100402748 0.00002343  0.00000248  0.0000655 0.0000
  6     -1.1321210454   0.000009480767 0.00000156  0.00000026  0.0000048 0.0000
                 **** Energy Check signals convergence ****

               *****************************************************
               *                     SUCCESS                       *
               *           SCF CONVERGED AFTER   7 CYCLES          *
               *****************************************************

Total Energy       :           -1.13212044 Eh             -30.80656 eV
  Last Energy change         ...    6.0304e-07  Tolerance :   1.0000e-06
  Last MAX-Density change    ...    2.9805e-07  Tolerance :   1.0000e-05
             **** THE GBW FILE WAS UPDATED (orca.gbw) ****
             **** DENSITY FILE WAS UPDATED (orca.scfp) ****
             **** ENERGY FILE WAS UPDATED (orca.en.tmp) ****
----------------------
UHF SPIN CONTAMINATION
----------------------

Expectation value of <S**2>     :     0.000000
Ideal value S*(S+1) for S=0.0   :     0.000000
Deviation                       :     0.000000

             **** THE GBW FILE WAS UPDATED (orca.gbw) ****
             **** DENSITY FILE WAS UPDATED (orca.scfp) ****
Total SCF time: 0 days 0 hours 0 min 0 sec 

-------------------------   --------------------
FINAL SINGLE POINT ENERGY        -1.132120442318
-------------------------   --------------------

Storing actual gbw-file in orca.007.gbw ... done

                            ***************************************
                            *     ORCA property calculations      *
                            ***************************************

                                    ---------------------
                                    Active property flags
                                    ---------------------
   (+) Dipole Moment


------------------------------------------------------------------------------
                       ORCA ELECTRIC PROPERTIES CALCULATION
------------------------------------------------------------------------------

Dipole Moment Calculation                       ... on
Quadrupole Moment Calculation                   ... off
Polarizability Calculation                      ... off
GBWName                                         ... orca.gbw
Electron density file                           ... orca.scfp
The origin for moment calculation is the CENTER OF MASS  = ( 0.661404,  0.000000  0.000000)

-------------
DIPOLE MOMENT
-------------
                                X             Y             Z
Electronic contribution:      0.00000      -0.00000      -0.00000
Nuclear contribution   :      0.00000       0.00000       0.00000
                        -----------------------------------------
Total Dipole Moment    :      0.00000      -0.00000      -0.00000
                        -----------------------------------------
Magnitude (a.u.)       :      0.00000
Magnitude (Debye)      :      0.00000



--------------------
Rotational spectrum 
--------------------
 
Rotational constants in cm-1:     0.000000    68.260629    68.260629 
Rotational constants in MHz :     0.000000 2046402.169131 2046402.169131 

 Dipole components along the rotational axes: 
x,y,z [a.u.] :     0.000000    -0.000000    -0.000000 
x,y,z [Debye]:     0.000000    -0.000000    -0.000000 

 

         *************************************************************
                                TRAJECTORY STEP   8
                  R  :   0.75000000
         *************************************************************
---------------------------------
CARTESIAN COORDINATES (ANGSTROEM)
---------------------------------
  H      0.000000    0.000000    0.000000
  H      0.750000    0.000000    0.000000

----------------------------
CARTESIAN COORDINATES (A.U.)
----------------------------
  NO LB      ZA    FRAG     MASS         X           Y           Z
   0 H     1.0000    0     1.008    0.000000    0.000000    0.000000
   1 H     1.0000    0     1.008    1.417295    0.000000    0.000000

--------------------------------
INTERNAL COORDINATES (ANGSTROEM)
--------------------------------
 H      0   0   0     0.000000000000     0.00000000     0.00000000
 H      1   0   0     0.750000000000     0.00000000     0.00000000

---------------------------
INTERNAL COORDINATES (A.U.)
---------------------------
 H      0   0   0     0.000000000000     0.00000000     0.00000000
 H      1   0   0     1.417294600441     0.00000000     0.00000000


Diagonalization of the overlap matrix:
Smallest eigenvalue                        ... 3.227e-03
Time for diagonalization                   ...    0.000 sec
Threshold for overlap eigenvalues          ... 1.000e-08
Number of eigenvalues below threshold      ... 0
Time for construction of square roots      ...    0.000 sec
Total time needed                          ...    0.000 sec

--------------
SCF ITERATIONS
--------------
ITER       Energy         Delta-E        Max-DP      RMS-DP      [F,P]     Damp
               ***  Starting incremental Fock matrix formation  ***
  0     -1.1323948232   0.000000000000 0.00074082  0.00009153  0.0227912 0.7000
  1     -1.1325133075  -0.000118484342 0.00060187  0.00007897  0.0177090 0.7000
                               ***Turning on DIIS***
  2     -1.1326054222  -0.000092114645 0.00149043  0.00020379  0.0133146 0.0000
  3     -1.1332413120  -0.000635889877 0.00026838  0.00004427  0.0020982 0.0000
  4     -1.1329578940   0.000283418045 0.00016749  0.00001855  0.0004739 0.0000
  5     -1.1328617387   0.000096155305 0.00002285  0.00000249  0.0000643 0.0000
  6     -1.1328523372   0.000009401448 0.00000169  0.00000028  0.0000048 0.0000
                 **** Energy Check signals convergence ****

               *****************************************************
               *                     SUCCESS                       *
               *           SCF CONVERGED AFTER   7 CYCLES          *
               *****************************************************

Total Energy       :           -1.13285173 Eh             -30.82646 eV
  Last Energy change         ...    6.0781e-07  Tolerance :   1.0000e-06
  Last MAX-Density change    ...    3.2499e-07  Tolerance :   1.0000e-05
             **** THE GBW FILE WAS UPDATED (orca.gbw) ****
             **** DENSITY FILE WAS UPDATED (orca.scfp) ****
             **** ENERGY FILE WAS UPDATED (orca.en.tmp) ****
----------------------
UHF SPIN CONTAMINATION
----------------------

Expectation value of <S**2>     :     0.000000
Ideal value S*(S+1) for S=0.0   :     0.000000
Deviation                       :     0.000000

             **** THE GBW FILE WAS UPDATED (orca.gbw) ****
             **** DENSITY FILE WAS UPDATED (orca.scfp) ****
Total SCF time: 0 days 0 hours 0 min 0 sec 

-------------------------   --------------------
FINAL SINGLE POINT ENERGY        -1.132851729434
-------------------------   --------------------

Storing actual gbw-file in orca.008.gbw ... done

                            ***************************************
                            *     ORCA property calculations      *
                            ***************************************

                                    ---------------------
                                    Active property flags
                                    ---------------------
   (+) Dipole Moment


------------------------------------------------------------------------------
                       ORCA ELECTRIC PROPERTIES CALCULATION
------------------------------------------------------------------------------

Dipole Moment Calculation                       ... on
Quadrupole Moment Calculation                   ... off
Polarizability Calculation                      ... off
GBWName                                         ... orca.gbw
Electron density file                           ... orca.scfp
The origin for moment calculation is the CENTER OF MASS  = ( 0.708647,  0.000000  0.000000)

-------------
DIPOLE MOMENT
-------------
                                X             Y             Z
Electronic contribution:     -0.00000      -0.00000      -0.00000
Nuclear contribution   :      0.00000       0.00000       0.00000
                        -----------------------------------------
Total Dipole Moment    :     -0.00000      -0.00000      -0.00000
                        -----------------------------------------
Magnitude (a.u.)       :      0.00000
Magnitude (Debye)      :      0.00000



--------------------
Rotational spectrum 
--------------------
 
Rotational constants in cm-1:     0.000000    59.462592    59.462592 
Rotational constants in MHz :     0.000000 1782643.667332 1782643.667332 

 Dipole components along the rotational axes: 
x,y,z [a.u.] :    -0.000000    -0.000000    -0.000000 
x,y,z [Debye]:    -0.000000    -0.000000    -0.000000 

 

         *************************************************************
                                TRAJECTORY STEP   9
                  R  :   0.80000000
         *************************************************************
---------------------------------
CARTESIAN COORDINATES (ANGSTROEM)
---------------------------------
  H      0.000000    0.000000    0.000000
  H      0.800000    0.000000    0.000000

----------------------------
CARTESIAN COORDINATES (A.U.)
----------------------------
  NO LB      ZA    FRAG     MASS         X           Y           Z
   0 H     1.0000    0     1.008    0.000000    0.000000    0.000000
   1 H     1.0000    0     1.008    1.511781    0.000000    0.000000

--------------------------------
INTERNAL COORDINATES (ANGSTROEM)
--------------------------------
 H      0   0   0     0.000000000000     0.00000000     0.00000000
 H      1   0   0     0.800000000000     0.00000000     0.00000000

---------------------------
INTERNAL COORDINATES (A.U.)
---------------------------
 H      0   0   0     0.000000000000     0.00000000     0.00000000
 H      1   0   0     1.511780907137     0.00000000     0.00000000


Diagonalization of the overlap matrix:
Smallest eigenvalue                        ... 4.817e-03
Time for diagonalization                   ...    0.000 sec
Threshold for overlap eigenvalues          ... 1.000e-08
Number of eigenvalues below threshold      ... 0
Time for construction of square roots      ...    0.000 sec
Total time needed                          ...    0.000 sec

--------------
SCF ITERATIONS
--------------
ITER       Energy         Delta-E        Max-DP      RMS-DP      [F,P]     Damp
               ***  Starting incremental Fock matrix formation  ***
  0     -1.1299026615   0.000000000000 0.00067236  0.00008601  0.0211325 0.7000
  1     -1.1300072391  -0.000104577613 0.00054632  0.00007509  0.0164311 0.7000
                               ***Turning on DIIS***
  2     -1.1300887758  -0.000081536643 0.00135356  0.00019498  0.0123651 0.0000
  3     -1.1306769012  -0.000588125448 0.00028260  0.00004400  0.0019786 0.0000
  4     -1.1304093637   0.000267537487 0.00016844  0.00001839  0.0004623 0.0000
  5     -1.1303177088   0.000091654891 0.00002209  0.00000249  0.0000628 0.0000
  6     -1.1303083797   0.000009329147 0.00000181  0.00000031  0.0000047 0.0000
                 **** Energy Check signals convergence ****

               *****************************************************
               *                     SUCCESS                       *
               *           SCF CONVERGED AFTER   7 CYCLES          *
               *****************************************************

Total Energy       :           -1.13030777 Eh             -30.75724 eV
  Last Energy change         ...    6.1327e-07  Tolerance :   1.0000e-06
  Last MAX-Density change    ...    3.4897e-07  Tolerance :   1.0000e-05
             **** THE GBW FILE WAS UPDATED (orca.gbw) ****
             **** DENSITY FILE WAS UPDATED (orca.scfp) ****
             **** ENERGY FILE WAS UPDATED (orca.en.tmp) ****
----------------------
UHF SPIN CONTAMINATION
----------------------

Expectation value of <S**2>     :     0.000000
Ideal value S*(S+1) for S=0.0   :     0.000000
Deviation                       :     0.000000

             **** THE GBW FILE WAS UPDATED (orca.gbw) ****
             **** DENSITY FILE WAS UPDATED (orca.scfp) ****
Total SCF time: 0 days 0 hours 0 min 0 sec 

-------------------------   --------------------
FINAL SINGLE POINT ENERGY        -1.130307766405
-------------------------   --------------------

Storing actual gbw-file in orca.009.gbw ... done

                            ***************************************
                            *     ORCA property calculations      *
                            ***************************************

                                    ---------------------
                                    Active property flags
                                    ---------------------
   (+) Dipole Moment


------------------------------------------------------------------------------
                       ORCA ELECTRIC PROPERTIES CALCULATION
------------------------------------------------------------------------------

Dipole Moment Calculation                       ... on
Quadrupole Moment Calculation                   ... off
Polarizability Calculation                      ... off
GBWName                                         ... orca.gbw
Electron density file                           ... orca.scfp
The origin for moment calculation is the CENTER OF MASS  = ( 0.755890,  0.000000  0.000000)

-------------
DIPOLE MOMENT
-------------
                                X             Y             Z
Electronic contribution:     -0.00000      -0.00000       0.00000
Nuclear contribution   :      0.00000       0.00000       0.00000
                        -----------------------------------------
Total Dipole Moment    :     -0.00000      -0.00000       0.00000
                        -----------------------------------------
Magnitude (a.u.)       :      0.00000
Magnitude (Debye)      :      0.00000



--------------------
Rotational spectrum 
--------------------
 
Rotational constants in cm-1:     0.000000    52.262044    52.262044 
Rotational constants in MHz :     0.000000 1566776.660741 1566776.660741 

 Dipole components along the rotational axes: 
x,y,z [a.u.] :    -0.000000    -0.000000     0.000000 
x,y,z [Debye]:    -0.000000    -0.000000     0.000000 

 

         *************************************************************
                                TRAJECTORY STEP  10
                  R  :   0.85000000
         *************************************************************
---------------------------------
CARTESIAN COORDINATES (ANGSTROEM)
---------------------------------
  H      0.000000    0.000000    0.000000
  H      0.850000    0.000000    0.000000

----------------------------
CARTESIAN COORDINATES (A.U.)
----------------------------
  NO LB      ZA    FRAG     MASS         X           Y           Z
   0 H     1.0000    0     1.008    0.000000    0.000000    0.000000
   1 H     1.0000    0     1.008    1.606267    0.000000    0.000000

--------------------------------
INTERNAL COORDINATES (ANGSTROEM)
--------------------------------
 H      0   0   0     0.000000000000     0.00000000     0.00000000
 H      1   0   0     0.850000000000     0.00000000     0.00000000

---------------------------
INTERNAL COORDINATES (A.U.)
---------------------------
 H      0   0   0     0.000000000000     0.00000000     0.00000000
 H      1   0   0     1.606267213833     0.00000000     0.00000000


Diagonalization of the overlap matrix:
Smallest eigenvalue                        ... 6.955e-03
Time for diagonalization                   ...    0.000 sec
Threshold for overlap eigenvalues          ... 1.000e-08
Number of eigenvalues below threshold      ... 0
Time for construction of square roots      ...    0.000 sec
Total time needed                          ...    0.000 sec

--------------
SCF ITERATIONS
--------------
ITER       Energy         Delta-E        Max-DP      RMS-DP      [F,P]     Damp
               ***  Starting incremental Fock matrix formation  ***
  0     -1.1250141606   0.000000000000 0.00061066  0.00008112  0.0196237 0.7000
  1     -1.1251067190  -0.000092558379 0.00049632  0.00007169  0.0152667 0.7000
                               ***Turning on DIIS***
  2     -1.1251790762  -0.000072357196 0.00123036  0.00018725  0.0114982 0.0000
  3     -1.1257219204  -0.000542844196 0.00029426  0.00004364  0.0018649 0.0000
  4     -1.1254712881   0.000250632349 0.00016863  0.00001821  0.0004499 0.0000
  5     -1.1253840767   0.000087211327 0.00002116  0.00000250  0.0000612 0.0000
  6     -1.1253748323   0.000009244422 0.00000192  0.00000034  0.0000046 0.0000
                 **** Energy Check signals convergence ****

               *****************************************************
               *                     SUCCESS                       *
               *           SCF CONVERGED AFTER   7 CYCLES          *
               *****************************************************

Total Energy       :           -1.12537421 Eh             -30.62299 eV
  Last Energy change         ...    6.1771e-07  Tolerance :   1.0000e-06
  Last MAX-Density change    ...    3.8097e-07  Tolerance :   1.0000e-05
             **** THE GBW FILE WAS UPDATED (orca.gbw) ****
             **** DENSITY FILE WAS UPDATED (orca.scfp) ****
             **** ENERGY FILE WAS UPDATED (orca.en.tmp) ****
----------------------
UHF SPIN CONTAMINATION
----------------------

Expectation value of <S**2>     :    -0.000000
Ideal value S*(S+1) for S=0.0   :     0.000000
Deviation                       :    -0.000000

             **** THE GBW FILE WAS UPDATED (orca.gbw) ****
             **** DENSITY FILE WAS UPDATED (orca.scfp) ****
Total SCF time: 0 days 0 hours 0 min 0 sec 

-------------------------   --------------------
FINAL SINGLE POINT ENERGY        -1.125374214596
-------------------------   --------------------

Storing actual gbw-file in orca.010.gbw ... done

                            ***************************************
                            *     ORCA property calculations      *
                            ***************************************

                                    ---------------------
                                    Active property flags
                                    ---------------------
   (+) Dipole Moment


------------------------------------------------------------------------------
                       ORCA ELECTRIC PROPERTIES CALCULATION
------------------------------------------------------------------------------

Dipole Moment Calculation                       ... on
Quadrupole Moment Calculation                   ... off
Polarizability Calculation                      ... off
GBWName                                         ... orca.gbw
Electron density file                           ... orca.scfp
The origin for moment calculation is the CENTER OF MASS  = ( 0.803134,  0.000000  0.000000)

-------------
DIPOLE MOMENT
-------------
                                X             Y             Z
Electronic contribution:     -0.00000       0.00000      -0.00000
Nuclear contribution   :      0.00000       0.00000       0.00000
                        -----------------------------------------
Total Dipole Moment    :     -0.00000       0.00000      -0.00000
                        -----------------------------------------
Magnitude (a.u.)       :      0.00000
Magnitude (Debye)      :      0.00000



--------------------
Rotational spectrum 
--------------------
 
Rotational constants in cm-1:     0.000000    46.294406    46.294406 
Rotational constants in MHz :     0.000000 1387871.367300 1387871.367300 

 Dipole components along the rotational axes: 
x,y,z [a.u.] :    -0.000000     0.000000    -0.000000 
x,y,z [Debye]:    -0.000000     0.000000    -0.000000 

 

         *************************************************************
                                TRAJECTORY STEP  11
                  R  :   0.90000000
         *************************************************************
---------------------------------
CARTESIAN COORDINATES (ANGSTROEM)
---------------------------------
  H      0.000000    0.000000    0.000000
  H      0.900000    0.000000    0.000000

----------------------------
CARTESIAN COORDINATES (A.U.)
----------------------------
  NO LB      ZA    FRAG     MASS         X           Y           Z
   0 H     1.0000    0     1.008    0.000000    0.000000    0.000000
   1 H     1.0000    0     1.008    1.700754    0.000000    0.000000

--------------------------------
INTERNAL COORDINATES (ANGSTROEM)
--------------------------------
 H      0   0   0     0.000000000000     0.00000000     0.00000000
 H      1   0   0     0.900000000000     0.00000000     0.00000000

---------------------------
INTERNAL COORDINATES (A.U.)
---------------------------
 H      0   0   0     0.000000000000     0.00000000     0.00000000
 H      1   0   0     1.700753520529     0.00000000     0.00000000


Diagonalization of the overlap matrix:
Smallest eigenvalue                        ... 9.708e-03
Time for diagonalization                   ...    0.000 sec
Threshold for overlap eigenvalues          ... 1.000e-08
Number of eigenvalues below threshold      ... 0
Time for construction of square roots      ...    0.000 sec
Total time needed                          ...    0.000 sec

--------------
SCF ITERATIONS
--------------
ITER       Energy         Delta-E        Max-DP      RMS-DP      [F,P]     Damp
               ***  Starting incremental Fock matrix formation  ***
  0     -1.1183849482   0.000000000000 0.00055419  0.00007675  0.0182289 0.7000
  1     -1.1184669756  -0.000082027430 0.00045062  0.00006869  0.0141893 0.7000
                               ***Turning on DIIS***
  2     -1.1185312621  -0.000064286438 0.00111772  0.00018047  0.0106949 0.0000
  3     -1.1190311484  -0.000499886322 0.00030411  0.00004322  0.0017562 0.0000
  4     -1.1187980843   0.000233064087 0.00016828  0.00001803  0.0004369 0.0000
  5     -1.1187150692   0.000083015061 0.00002006  0.00000252  0.0000594 0.0000
  6     -1.1187059357   0.000009133580 0.00000203  0.00000036  0.0000045 0.0000
                 **** Energy Check signals convergence ****

               *****************************************************
               *                     SUCCESS                       *
               *           SCF CONVERGED AFTER   7 CYCLES          *
               *****************************************************

Total Energy       :           -1.11870532 Eh             -30.44152 eV
  Last Energy change         ...    6.1990e-07  Tolerance :   1.0000e-06
  Last MAX-Density change    ...    4.1928e-07  Tolerance :   1.0000e-05
             **** THE GBW FILE WAS UPDATED (orca.gbw) ****
             **** DENSITY FILE WAS UPDATED (orca.scfp) ****
             **** ENERGY FILE WAS UPDATED (orca.en.tmp) ****
----------------------
UHF SPIN CONTAMINATION
----------------------

Expectation value of <S**2>     :    -0.000000
Ideal value S*(S+1) for S=0.0   :     0.000000
Deviation                       :    -0.000000

             **** THE GBW FILE WAS UPDATED (orca.gbw) ****
             **** DENSITY FILE WAS UPDATED (orca.scfp) ****
Total SCF time: 0 days 0 hours 0 min 0 sec 

-------------------------   --------------------
FINAL SINGLE POINT ENERGY        -1.118705315762
-------------------------   --------------------

Storing actual gbw-file in orca.011.gbw ... done

                            ***************************************
                            *     ORCA property calculations      *
                            ***************************************

                                    ---------------------
                                    Active property flags
                                    ---------------------
   (+) Dipole Moment


------------------------------------------------------------------------------
                       ORCA ELECTRIC PROPERTIES CALCULATION
------------------------------------------------------------------------------

Dipole Moment Calculation                       ... on
Quadrupole Moment Calculation                   ... off
Polarizability Calculation                      ... off
[...]
               ***  Starting incremental Fock matrix formation  ***
  0     -0.9391819638   0.000000000000 0.00030489  0.00003788  0.0041081 0.7000
  1     -0.9391896410  -0.000007677248 0.00027622  0.00003678  0.0032554 0.7000
                               ***Turning on DIIS***
  2     -0.9391960447  -0.000006403683 0.00076098  0.00009890  0.0024882 0.0000
  3     -0.9393235648  -0.000127520083 0.00027791  0.00003337  0.0005472 0.0000
  4     -0.9392269097   0.000096655109 0.00003598  0.00000637  0.0000689 0.0000
  5     -0.9392171126   0.000009797050 0.00001350  0.00000168  0.0000096 0.0000
                            ***DIIS convergence achieved***

               *****************************************************
               *                     SUCCESS                       *
               *           SCF CONVERGED AFTER   6 CYCLES          *
               *****************************************************

Total Energy       :           -0.93921504 Eh             -25.55734 eV
  Last Energy change         ...    2.0729e-06  Tolerance :   1.0000e-06
  Last MAX-Density change    ...    1.9322e-06  Tolerance :   1.0000e-05
             **** THE GBW FILE WAS UPDATED (orca.gbw) ****
             **** DENSITY FILE WAS UPDATED (orca.scfp) ****
             **** ENERGY FILE WAS UPDATED (orca.en.tmp) ****
----------------------
UHF SPIN CONTAMINATION
----------------------

Expectation value of <S**2>     :    -0.000000
Ideal value S*(S+1) for S=0.0   :     0.000000
Deviation                       :    -0.000000

             **** THE GBW FILE WAS UPDATED (orca.gbw) ****
             **** DENSITY FILE WAS UPDATED (orca.scfp) ****
Total SCF time: 0 days 0 hours 0 min 0 sec 

-------------------------   --------------------
FINAL SINGLE POINT ENERGY        -0.939215039668
-------------------------   --------------------

Storing actual gbw-file in orca.031.gbw ... done

                            ***************************************
                            *     ORCA property calculations      *
                            ***************************************

                                    ---------------------
                                    Active property flags
                                    ---------------------
   (+) Dipole Moment


------------------------------------------------------------------------------
                       ORCA ELECTRIC PROPERTIES CALCULATION
------------------------------------------------------------------------------

Dipole Moment Calculation                       ... on
Quadrupole Moment Calculation                   ... off
Polarizability Calculation                      ... off
GBWName                                         ... orca.gbw
Electron density file                           ... orca.scfp
The origin for moment calculation is the CENTER OF MASS  = ( 1.795240,  0.000000  0.000000)

-------------
DIPOLE MOMENT
-------------
                                X             Y             Z
Electronic contribution:     -0.00000      -0.00000      -0.00000
Nuclear contribution   :      0.00000       0.00000       0.00000
                        -----------------------------------------
Total Dipole Moment    :     -0.00000      -0.00000      -0.00000
                        -----------------------------------------
Magnitude (a.u.)       :      0.00000
Magnitude (Debye)      :      0.00000



--------------------
Rotational spectrum 
--------------------
 
Rotational constants in cm-1:     0.000000     9.265293     9.265293 
Rotational constants in MHz :     0.000000 277766.499411 277766.499411 

 Dipole components along the rotational axes: 
x,y,z [a.u.] :    -0.000000    -0.000000    -0.000000 
x,y,z [Debye]:    -0.000000    -0.000000    -0.000000 

 

         *************************************************************
                                TRAJECTORY STEP  32
                  R  :   1.95000000
         *************************************************************
---------------------------------
CARTESIAN COORDINATES (ANGSTROEM)
---------------------------------
  H      0.000000    0.000000    0.000000
  H      1.950000    0.000000    0.000000

----------------------------
CARTESIAN COORDINATES (A.U.)
----------------------------
  NO LB      ZA    FRAG     MASS         X           Y           Z
   0 H     1.0000    0     1.008    0.000000    0.000000    0.000000
   1 H     1.0000    0     1.008    3.684966    0.000000    0.000000

--------------------------------
INTERNAL COORDINATES (ANGSTROEM)
--------------------------------
 H      0   0   0     0.000000000000     0.00000000     0.00000000
 H      1   0   0     1.950000000000     0.00000000     0.00000000

---------------------------
INTERNAL COORDINATES (A.U.)
---------------------------
 H      0   0   0     0.000000000000     0.00000000     0.00000000
 H      1   0   0     3.684965961146     0.00000000     0.00000000


Diagonalization of the overlap matrix:
Smallest eigenvalue                        ... 2.880e-02
Time for diagonalization                   ...    0.000 sec
Threshold for overlap eigenvalues          ... 1.000e-08
Number of eigenvalues below threshold      ... 0
Time for construction of square roots      ...    0.000 sec
Total time needed                          ...    0.000 sec

--------------
SCF ITERATIONS
--------------
ITER       Energy         Delta-E        Max-DP      RMS-DP      [F,P]     Damp
               ***  Starting incremental Fock matrix formation  ***
  0     -0.9322050059   0.000000000000 0.00029487  0.00003662  0.0038323 0.7000
  1     -0.9322119943  -0.000006988437 0.00026533  0.00003549  0.0030394 0.7000
                               ***Turning on DIIS***
  2     -0.9322178349  -0.000005840523 0.00073592  0.00009537  0.0023240 0.0000
  3     -0.9323385459  -0.000120711026 0.00026518  0.00003232  0.0005187 0.0000
  4     -0.9322466977   0.000091848150 0.00003819  0.00000644  0.0000662 0.0000
  5     -0.9322372252   0.000009472547 0.00001382  0.00000170  0.0000093 0.0000
                            ***DIIS convergence achieved***

               *****************************************************
               *                     SUCCESS                       *
               *           SCF CONVERGED AFTER   6 CYCLES          *
               *****************************************************

Total Energy       :           -0.93223521 Eh             -25.36741 eV
  Last Energy change         ...    2.0200e-06  Tolerance :   1.0000e-06
  Last MAX-Density change    ...    1.9320e-06  Tolerance :   1.0000e-05
             **** THE GBW FILE WAS UPDATED (orca.gbw) ****
             **** DENSITY FILE WAS UPDATED (orca.scfp) ****
             **** ENERGY FILE WAS UPDATED (orca.en.tmp) ****
----------------------
UHF SPIN CONTAMINATION
----------------------

Expectation value of <S**2>     :    -0.000000
Ideal value S*(S+1) for S=0.0   :     0.000000
Deviation                       :    -0.000000

             **** THE GBW FILE WAS UPDATED (orca.gbw) ****
             **** DENSITY FILE WAS UPDATED (orca.scfp) ****
Total SCF time: 0 days 0 hours 0 min 0 sec 

-------------------------   --------------------
FINAL SINGLE POINT ENERGY        -0.932235205156
-------------------------   --------------------

Storing actual gbw-file in orca.032.gbw ... done

                            ***************************************
                            *     ORCA property calculations      *
                            ***************************************

                                    ---------------------
                                    Active property flags
                                    ---------------------
   (+) Dipole Moment


------------------------------------------------------------------------------
                       ORCA ELECTRIC PROPERTIES CALCULATION
------------------------------------------------------------------------------

Dipole Moment Calculation                       ... on
Quadrupole Moment Calculation                   ... off
Polarizability Calculation                      ... off
GBWName                                         ... orca.gbw
Electron density file                           ... orca.scfp
The origin for moment calculation is the CENTER OF MASS  = ( 1.842483,  0.000000  0.000000)

-------------
DIPOLE MOMENT
-------------
                                X             Y             Z
Electronic contribution:      0.00000       0.00000       0.00000
Nuclear contribution   :      0.00000       0.00000       0.00000
                        -----------------------------------------
Total Dipole Moment    :      0.00000       0.00000       0.00000
                        -----------------------------------------
Magnitude (a.u.)       :      0.00000
Magnitude (Debye)      :      0.00000



--------------------
Rotational spectrum 
--------------------
 
Rotational constants in cm-1:     0.000000     8.796241     8.796241 
Rotational constants in MHz :     0.000000 263704.684517 263704.684517 

 Dipole components along the rotational axes: 
x,y,z [a.u.] :     0.000000     0.000000     0.000000 
x,y,z [Debye]:     0.000000     0.000000     0.000000 

 

         *************************************************************
                                TRAJECTORY STEP  33
                  R  :   2.00000000
         *************************************************************
---------------------------------
CARTESIAN COORDINATES (ANGSTROEM)
---------------------------------
  H      0.000000    0.000000    0.000000
  H      2.000000    0.000000    0.000000

----------------------------
CARTESIAN COORDINATES (A.U.)
----------------------------
  NO LB      ZA    FRAG     MASS         X           Y           Z
   0 H     1.0000    0     1.008    0.000000    0.000000    0.000000
   1 H     1.0000    0     1.008    3.779452    0.000000    0.000000

--------------------------------
INTERNAL COORDINATES (ANGSTROEM)
--------------------------------
 H      0   0   0     0.000000000000     0.00000000     0.00000000
 H      1   0   0     2.000000000000     0.00000000     0.00000000

---------------------------
INTERNAL COORDINATES (A.U.)
---------------------------
 H      0   0   0     0.000000000000     0.00000000     0.00000000
 H      1   0   0     3.779452267843     0.00000000     0.00000000


Diagonalization of the overlap matrix:
Smallest eigenvalue                        ... 2.941e-02
Time for diagonalization                   ...    0.000 sec
Threshold for overlap eigenvalues          ... 1.000e-08
Number of eigenvalues below threshold      ... 0
Time for construction of square roots      ...    0.000 sec
Total time needed                          ...    0.000 sec

--------------
SCF ITERATIONS
--------------
ITER       Energy         Delta-E        Max-DP      RMS-DP      [F,P]     Damp
               ***  Starting incremental Fock matrix formation  ***
  0     -0.9254758899   0.000000000000 0.00028470  0.00003539  0.0035695 0.7000
  1     -0.9254822537  -0.000006363813 0.00025589  0.00003424  0.0028335 0.7000
                               ***Turning on DIIS***
  2     -0.9254875828  -0.000005329094 0.00071109  0.00009192  0.0021752 0.0000
  3     -0.9256020005  -0.000114417683 0.00025267  0.00003134  0.0004913 0.0000
  4     -0.9255145924   0.000087408059 0.00004035  0.00000651  0.0000636 0.0000
  5     -0.9255054444   0.000009147967 0.00001412  0.00000172  0.0000089 0.0000
                            ***DIIS convergence achieved***

               *****************************************************
               *                     SUCCESS                       *
               *           SCF CONVERGED AFTER   6 CYCLES          *
               *****************************************************

Total Energy       :           -0.92550347 Eh             -25.18423 eV
  Last Energy change         ...    1.9701e-06  Tolerance :   1.0000e-06
  Last MAX-Density change    ...    1.9223e-06  Tolerance :   1.0000e-05
             **** THE GBW FILE WAS UPDATED (orca.gbw) ****
             **** DENSITY FILE WAS UPDATED (orca.scfp) ****
             **** ENERGY FILE WAS UPDATED (orca.en.tmp) ****
----------------------
UHF SPIN CONTAMINATION
----------------------

Expectation value of <S**2>     :    -0.000000
Ideal value S*(S+1) for S=0.0   :     0.000000
Deviation                       :    -0.000000

             **** THE GBW FILE WAS UPDATED (orca.gbw) ****
             **** DENSITY FILE WAS UPDATED (orca.scfp) ****
Total SCF time: 0 days 0 hours 0 min 0 sec 

-------------------------   --------------------
FINAL SINGLE POINT ENERGY        -0.925503474305
-------------------------   --------------------

Storing actual gbw-file in orca.033.gbw ... done

                            ***************************************
                            *     ORCA property calculations      *
                            ***************************************

                                    ---------------------
                                    Active property flags
                                    ---------------------
   (+) Dipole Moment


------------------------------------------------------------------------------
                       ORCA ELECTRIC PROPERTIES CALCULATION
------------------------------------------------------------------------------

Dipole Moment Calculation                       ... on
Quadrupole Moment Calculation                   ... off
Polarizability Calculation                      ... off
GBWName                                         ... orca.gbw
Electron density file                           ... orca.scfp
The origin for moment calculation is the CENTER OF MASS  = ( 1.889726,  0.000000  0.000000)

-------------
DIPOLE MOMENT
-------------
                                X             Y             Z
Electronic contribution:     -0.00000      -0.00000       0.00000
Nuclear contribution   :      0.00000       0.00000       0.00000
                        -----------------------------------------
Total Dipole Moment    :     -0.00000      -0.00000       0.00000
                        -----------------------------------------
Magnitude (a.u.)       :      0.00000
Magnitude (Debye)      :      0.00000



--------------------
Rotational spectrum 
--------------------
 
Rotational constants in cm-1:     0.000000     8.361927     8.361927 
Rotational constants in MHz :     0.000000 250684.265719 250684.265719 

 Dipole components along the rotational axes: 
x,y,z [a.u.] :    -0.000000    -0.000000     0.000000 
x,y,z [Debye]:    -0.000000    -0.000000     0.000000 

 
                              **** TRAJECTORY DONE ***

                         SUMMARY OF THE CALCULATED SURFACE

------------------
TRAJECTORY RESULTS
------------------

Column   1: R

The Calculated Surface using the 'Actual Energy'
   0.40000000  -0.93978762
   0.45000000  -1.01417871
   0.50000000  -1.06344471
   0.55000000  -1.09549739
   0.60000000  -1.11549096
   0.65000000  -1.12689823
   0.70000000  -1.13212044
   0.75000000  -1.13285173
   0.80000000  -1.13030777
   0.85000000  -1.12537421
   0.90000000  -1.11870532
   0.95000000  -1.11079036
   1.00000000  -1.10199901
   1.05000000  -1.09261260
   1.10000000  -1.08284586
   1.15000000  -1.07286258
   1.20000000  -1.06278723
   1.25000000  -1.05271415
   1.30000000  -1.04271469
   1.35000000  -1.03284297
   1.40000000  -1.02313959
   1.45000000  -1.01363534
   1.50000000  -1.00435295
   1.55000000  -0.99530889
   1.60000000  -0.98651457
   1.65000000  -0.97797739
   1.70000000  -0.96970151
   1.75000000  -0.96168851
   1.80000000  -0.95393798
   1.85000000  -0.94644790
   1.90000000  -0.93921504
   1.95000000  -0.93223521
   2.00000000  -0.92550347

                        *******************************
                        *   FIT OF THE ACT-ENERGY PES *
                        *******************************
-------------------------------
POTENTIAL ENERGY SURFACE =   0
-------------------------------

Minimum found after 15 iterations
Equilibrium distance and its energy from the interpolated PES:
  Re      =   0.73421 Angstroem  (  1.38746 Bohr)
  E(Re)   =    -1.133025 Eh 
  dE/dR   = -4.158e-10 (1.323e-02 CHEB)
  d2E/dR2 =    0.402807 (   0.438109 CHEB) (   0.517880 NUM)
  d3E/dR3 =   -1.392486 (  29.724019 CHEB)

Spectroscopic constants:
  we =    4613.9 cm**-1 (based on SPLINE)
  we =    4811.8 cm**-1 (based on CHEB)
  we =    5231.6 cm**-1 (based on NUM)

Performing Morse fit ...
Morse-Fit Results:
 Te(adiabatic)   = 5190412.0 cm**-1         =643.529 eV
 d2E/dR**2 (Morse)= -18463.037050114 
 d3E/dR**3 (Morse)= 1096443.051447496 
 d4E/dR**4 (Morse)= -50643597.515229084 
 E0               =     22.516232438 Eh  RMS=9.30e-02
 Re               =   0.23645 Angstroem      =  0.44683 Bohr RMS=7.65e-04)
 De(Morse)        = -641.06254 eV             =-5170518.6 cm**-1 RMS=9.29e-02
 D0(Morse)        =      -nan eV
 beta             =  19.79528 au          RMS=6.03e-02
 we               =     -nan cm**-1
 wexe             =  47152.7 cm**-1
 Displacement   =   -0.4978 Angstroem      = -0.94062 Bohr

The Calculated Surface using the SCF energy
   0.40000000  -0.93978762
   0.45000000  -1.01417871
   0.50000000  -1.06344471
   0.55000000  -1.09549739
   0.60000000  -1.11549096
   0.65000000  -1.12689823
   0.70000000  -1.13212044
   0.75000000  -1.13285173
   0.80000000  -1.13030777
   0.85000000  -1.12537421
   0.90000000  -1.11870532
   0.95000000  -1.11079036
   1.00000000  -1.10199901
   1.05000000  -1.09261260
   1.10000000  -1.08284586
   1.15000000  -1.07286258
   1.20000000  -1.06278723
   1.25000000  -1.05271415
   1.30000000  -1.04271469
   1.35000000  -1.03284297
   1.40000000  -1.02313959
   1.45000000  -1.01363534
   1.50000000  -1.00435295
   1.55000000  -0.99530889
   1.60000000  -0.98651457
   1.65000000  -0.97797739
   1.70000000  -0.96970151
   1.75000000  -0.96168851
   1.80000000  -0.95393798
   1.85000000  -0.94644790
   1.90000000  -0.93921504
   1.95000000  -0.93223521
   2.00000000  -0.92550347

                        *******************************
                        *       FIT OF THE SCF PES    *
                        *******************************
-------------------------------
POTENTIAL ENERGY SURFACE =   0
-------------------------------

Minimum found after 15 iterations
Equilibrium distance and its energy from the interpolated PES:
  Re      =   0.73421 Angstroem  (  1.38746 Bohr)
  E(Re)   =    -1.133025 Eh 
  dE/dR   = -4.158e-10 (1.323e-02 CHEB)
  d2E/dR2 =    0.402807 (   0.438109 CHEB) (   0.517880 NUM)
  d3E/dR3 =   -1.392486 (  29.724019 CHEB)

Spectroscopic constants:
  we =    4613.9 cm**-1 (based on SPLINE)
  we =    4811.8 cm**-1 (based on CHEB)
  we =    5231.6 cm**-1 (based on NUM)

Performing Morse fit ...
Morse-Fit Results:
 Te(adiabatic)   = 5190412.0 cm**-1         =643.529 eV
 d2E/dR**2 (Morse)= -18463.037050114 
 d3E/dR**3 (Morse)= 1096443.051447496 
 d4E/dR**4 (Morse)= -50643597.515229084 
 E0               =     22.516232438 Eh  RMS=9.30e-02
 Re               =   0.23645 Angstroem      =  0.44683 Bohr RMS=7.65e-04)
 De(Morse)        = -641.06254 eV             =-5170518.6 cm**-1 RMS=9.29e-02
 D0(Morse)        =      -nan eV
 beta             =  19.79528 au          RMS=6.03e-02
 we               =     -nan cm**-1
 wexe             =  47152.7 cm**-1
 Displacement   =   -0.4978 Angstroem      = -0.94062 Bohr


Timings for individual modules:

Sum of individual times         ...       35.394 sec (=   0.590 min)
GTO integral calculation        ...        7.910 sec (=   0.132 min)  22.3 %
SCF iterations                  ...       27.484 sec (=   0.458 min)  77.7 %
                             ****ORCA TERMINATED NORMALLY****
TOTAL RUN TIME: 0 days 0 hours 0 minutes 43 seconds 367 msec
