
                                 *****************
                                 * O   R   C   A *
                                 *****************

           --- An Ab Initio, DFT and Semiempirical electronic structure package ---

                  #######################################################
                  #                        -***-                        #
                  #          Department of theory and spectroscopy      #
                  #               Directorship: Frank Neese             #
                  #        Max Planck Institute fuer Kohlenforschung    #
                  #                Kaiser Wilhelm Platz 1               #
                  #                 D-45470 Muelheim/Ruhr               #
                  #                      Germany                        #
                  #                                                     #
                  #                  All rights reserved                #
                  #                        -***-                        #
                  #######################################################


                         Program Version 4.2.1 -  RELEASE  -


 With contributions from (in alphabetic order):
   Daniel Aravena         : Magnetic Suceptibility
   Michael Atanasov       : Ab Initio Ligand Field Theory (pilot matlab implementation)
   Alexander A. Auer      : GIAO ZORA, VPT2
   Ute Becker             : Parallelization
   Giovanni Bistoni       : ED, misc. LED, open-shell LED, HFLD
   Martin Brehm           : Molecular dynamics
   Dmytro Bykov           : SCF Hessian
   Vijay G. Chilkuri      : MRCI spin determinant printing, contributions to CSF-ICE
   Dipayan Datta          : RHF DLPNO-CCSD density
   Achintya Kumar Dutta   : EOM-CC, STEOM-CC
   Dmitry Ganyushin       : Spin-Orbit,Spin-Spin,Magnetic field MRCI
   Miquel Garcia          : C-PCM Hessian, Gaussian charge scheme
   Yang Guo               : DLPNO-NEVPT2, CIM, IAO-localization
   Andreas Hansen         : Spin unrestricted coupled pair/coupled cluster methods
   Benjamin Helmich-Paris : CASSCF linear response (MC-RPA)
   Lee Huntington         : MR-EOM, pCC
   Robert Izsak           : Overlap fitted RIJCOSX, COSX-SCS-MP3, EOM
   Christian Kollmar      : KDIIS, OOCD, Brueckner-CCSD(T), CCSD density
   Simone Kossmann        : Meta GGA functionals, TD-DFT gradient, OOMP2, MP2 Hessian
   Martin Krupicka        : AUTO-CI
   Lucas Lang             : DCDCAS
   Dagmar Lenk            : GEPOL surface, SMD
   Dimitrios Liakos       : Extrapolation schemes; Compound Job, initial MDCI parallelization
   Dimitrios Manganas     : Further ROCIS development; embedding schemes
   Dimitrios Pantazis     : SARC Basis sets
   Taras Petrenko         : DFT Hessian,TD-DFT gradient, ASA, ECA, R-Raman, ABS, FL, XAS/XES, NRVS
   Peter Pinski           : DLPNO-MP2, DLPNO-MP2 Gradient
   Christoph Reimann      : Effective Core Potentials
   Marius Retegan         : Local ZFS, SOC
   Christoph Riplinger    : Optimizer, TS searches, QM/MM, DLPNO-CCSD(T), (RO)-DLPNO pert. Triples
   Tobias Risthaus        : Range-separated hybrids, TD-DFT gradient, RPA, STAB
   Michael Roemelt        : Original ROCIS implementation
   Masaaki Saitow         : Open-shell DLPNO-CCSD energy and density
   Barbara Sandhoefer     : DKH picture change effects
   Avijit Sen             : IP-ROCIS
   Kantharuban Sivalingam : CASSCF convergence, NEVPT2, FIC-MRCI
   Bernardo de Souza      : ESD, SOC TD-DFT
   Georgi Stoychev        : AutoAux, RI-MP2 NMR
   Willem Van den Heuvel  : Paramagnetic NMR
   Boris Wezisla          : Elementary symmetry handling
   Frank Wennmohs         : Technical directorship


 We gratefully acknowledge several colleagues who have allowed us to
 interface, adapt or use parts of their codes:
   Stefan Grimme, W. Hujo, H. Kruse,             : VdW corrections, initial TS optimization,
                  C. Bannwarth                     DFT functionals, gCP, sTDA/sTD-DF
   Ed Valeev, F. Pavosevic, A. Kumar             : LibInt (2-el integral package), F12 methods
   Garnet Chan, S. Sharma, J. Yang, R. Olivares  : DMRG
   Ulf Ekstrom                                   : XCFun DFT Library
   Mihaly Kallay                                 : mrcc  (arbitrary order and MRCC methods)
   Andreas Klamt, Michael Diedenhofen            : otool_cosmo (COSMO solvation model)
   Jiri Pittner, Ondrej Demel                    : Mk-CCSD
   Frank Weinhold                                : gennbo (NPA and NBO analysis)
   Christopher J. Cramer and Donald G. Truhlar   : smd solvation model
   Lars Goerigk                                  : TD-DFT with DH, B97 family of functionals
   V. Asgeirsson, H. Jonsson                     : NEB implementation
   FAccTs GmbH                                   : IRC, NEB, NEB-TS, Multilevel, MM, QM/MM, CI optimization
   S Lehtola, MJT Oliveira, MAL Marques          : LibXC Library


 Your calculation uses the libint2 library for the computation of 2-el integrals
 For citations please refer to: http://libint.valeyev.net

 Your ORCA version has been built with support for libXC version: 4.2.3
 For citations please refer to: https://tddft.org/programs/libxc/

 This ORCA versions uses:
   CBLAS   interface :  Fast vector & matrix operations
   LAPACKE interface :  Fast linear algebra routines
   SCALAPACK package :  Parallel linear algebra routines


----- Orbital basis set information -----
Your calculation utilizes the basis: 6-311++G(3df,3pd)
   H, Li - Ne  : R. Krishnan, J. S. Binkley, R. Seeger and J. A. Pople, J. Chem. Phys. 72, 650 (1980).
   Na - Ar     : A. D. McLean and G. S. Chandler J. Chem. Phys. 72, 5639, (1980).
   K  - Ca     : J.-P. Blaudeau, M. P. McGrath, L. A. Curtiss and L. Radom, J. Chem. Phys. 107, 5016 (1997).
   Ga - Kr     : L. A. Curtiss, M. P. McGrath, J.-P. Blandeau, N. E. Davis, R. C. Binning and L. Radom, J. Chem. Phys. 103, 6104 (1995).
   Pol./Diff.
   H, Li - Cl  : T. Clark, J. Chandrasekhar and P. v. R. Schleyer, J. Comp. Chem. 4, 294 (1983).
   H - Ne      : M. J. Frisch, J. A. Pople and J. S. Binkley, J. Chem. Phys. 80, 3265 (1984).

================================================================================
                                        WARNINGS
                       Please study these warnings very carefully!
================================================================================


WARNING: No MP2 level density has been requested!
         To caclulate MP2 level properties use
         %mp2 Density relaxed end
         or
         %mp2 Density unrelaxed end

WARNING: Post HF methods need fully converged wavefunctions
  ===> : Setting SCFConvForced true
         You can overwrite this default with %scf ConvForced false 


INFO   : the flag for use of LIBINT has been found!

================================================================================
                                       INPUT FILE
================================================================================
NAME = orca.inp
|  1> !UHF MP2 6-311++G(3df,3pd) ENERGY
|  2> 
|  3> 
|  4> %scf
|  5>     BrokenSym 1, 1
|  6> end
|  7> 
|  8> 
|  9> %paras
| 10> 	R = 2.0, 0.4, 33 # x-axis of H1
| 11> end
| 12> 
| 13> *xyz 0 1
| 14> H    0.0000000    0.0000000    0.0000000
| 15> H    {R}                0.0000000    0.0000000
| 16> **                         ****END OF INPUT****
================================================================================

                       ******************************
                       * Parameter Scan Calculation *
                       ******************************

Trajectory settings:
    -> MP2 surface will be mapped
    -> SCF surface will be mapped

There are 1 parameter(s) to be scanned
             R: range=   2.00000000 ..   0.40000000  steps=   33
There will be   33 energy evaluations


         *************************************************************
                                TRAJECTORY STEP   1
                  R  :   2.00000000
         *************************************************************
---------------------------------
CARTESIAN COORDINATES (ANGSTROEM)
---------------------------------
  H      0.000000    0.000000    0.000000
  H      2.000000    0.000000    0.000000

----------------------------
CARTESIAN COORDINATES (A.U.)
----------------------------
  NO LB      ZA    FRAG     MASS         X           Y           Z
   0 H     1.0000    0     1.008    0.000000    0.000000    0.000000
   1 H     1.0000    0     1.008    3.779452    0.000000    0.000000

--------------------------------
INTERNAL COORDINATES (ANGSTROEM)
--------------------------------
 H      0   0   0     0.000000000000     0.00000000     0.00000000
 H      1   0   0     2.000000000000     0.00000000     0.00000000

---------------------------
INTERNAL COORDINATES (A.U.)
---------------------------
 H      0   0   0     0.000000000000     0.00000000     0.00000000
 H      1   0   0     3.779452267843     0.00000000     0.00000000

---------------------
BASIS SET INFORMATION
---------------------
There are 1 groups of distinct atoms

 Group   1 Type H   : 6s3p1d contracted to 4s3p1d pattern {3111/111/1}

Atom   0H    basis set group =>   1
Atom   1H    basis set group =>   1
------------------------------------------------------------------------------
                           ORCA GTO INTEGRAL CALCULATION
------------------------------------------------------------------------------

                         BASIS SET STATISTICS AND STARTUP INFO

 # of primitive gaussian shells          ...   20
 # of primitive gaussian functions       ...   40
 # of contracted shells                  ...   16
 # of contracted basis functions         ...   36
 Highest angular momentum                ...    2
 Maximum contraction depth               ...    3
 Integral package used                   ... LIBINT
 Integral threshhold            Thresh   ...  1.000e-10
 Primitive cut-off              TCut     ...  1.000e-11


------------------------------ INTEGRAL EVALUATION ----------------------------


 * One electron integrals 
 Pre-screening matrix                    ... done
 Shell pair data                         ... done (   0.000 sec)

-------------------------------------------------------------------------------
                                 ORCA SCF
-------------------------------------------------------------------------------

------------
SCF SETTINGS
------------
Hamiltonian:
 Ab initio Hamiltonian  Method          .... Hartree-Fock(GTOs)


General Settings:
 Integral files         IntName         .... orca
 Hartree-Fock type      HFTyp           .... UHF
 Total Charge           Charge          ....    0
 Multiplicity           Mult            ....    1
 Number of Electrons    NEL             ....    2
 Basis Dimension        Dim             ....   36
 Nuclear Repulsion      ENuc            ....      0.2645886042 Eh

Convergence Acceleration:
 DIIS                   CNVDIIS         .... on
   Start iteration      DIISMaxIt       ....    12
   Startup error        DIISStart       ....  0.200000
   # of expansion vecs  DIISMaxEq       ....     5
   Bias factor          DIISBfac        ....   1.050
   Max. coefficient     DIISMaxC        ....  10.000
 Newton-Raphson         CNVNR           .... off
 SOSCF                  CNVSOSCF        .... off
 Level Shifting         CNVShift        .... on
   Level shift para.    LevelShift      ....    0.2500
   Turn off err/grad.   ShiftErr        ....    0.0010
 Zerner damping         CNVZerner       .... off
 Static damping         CNVDamp         .... on
   Fraction old density DampFac         ....    0.7000
   Max. Damping (<1)    DampMax         ....    0.9800
   Min. Damping (>=0)   DampMin         ....    0.0000
   Turn off err/grad.   DampErr         ....    0.1000
 Fernandez-Rico         CNVRico         .... off

SCF Procedure:
 Maximum # iterations   MaxIter         ....   125
 SCF integral mode      SCFMode         .... Direct
   Integral package                     .... LIBINT
 Reset frequency        DirectResetFreq ....    20
 Integral Threshold     Thresh          ....  1.000e-10 Eh
 Primitive CutOff       TCut            ....  1.000e-11 Eh

Convergence Tolerance:
 Convergence Check Mode ConvCheckMode   .... Total+1el-Energy
 Convergence forced     ConvForced      .... 1
 Energy Change          TolE            ....  1.000e-06 Eh
 1-El. energy change                    ....  1.000e-03 Eh
 DIIS Error             TolErr          ....  1.000e-06


The Broken Symmetry feature is operative
   Number of electrons in the 'A' domain  ... 1
   Number of electrons in the 'B' domain  ... 1
We will first do a calculation with S=  1.0
and then try to converge to the broken symmetry state with Ms=  0.0


Diagonalization of the overlap matrix:
Smallest eigenvalue                        ... 2.482e-02
Time for diagonalization                   ...    0.073 sec
Threshold for overlap eigenvalues          ... 1.000e-08
Number of eigenvalues below threshold      ... 0
Time for construction of square roots      ...    0.000 sec
Total time needed                          ...    0.073 sec

-------------------
DFT GRID GENERATION
-------------------

General Integration Accuracy     IntAcc      ...  4.340
Radial Grid Type                 RadialGrid  ... Gauss-Chebyshev
Angular Grid (max. acc.)         AngularGrid ... Lebedev-110
Angular grid pruning method      GridPruning ... 3 (G Style)
Weight generation scheme         WeightScheme... Becke
Basis function cutoff            BFCut       ...    1.0000e-10
Integration weight cutoff        WCut        ...    1.0000e-14
Grids for H and He will be reduced by one unit

# of grid points (after initial pruning)     ...   1588 (   0.0 sec)
# of grid points (after weights+screening)   ...   1574 (   0.0 sec)
nearest neighbour list constructed           ...    0.0 sec
Grid point re-assignment to atoms done       ...    0.0 sec
Grid point division into batches done        ...    0.0 sec
Reduced shell lists constructed in    0.0 sec

Total number of grid points                  ...     1574
Total number of batches                      ...       26
Average number of points per batch           ...       60
Average number of grid points per atom       ...      787
Average number of shells per batch           ...    14.70 (91.90%)
Average number of basis functions per batch  ...    32.70 (90.84%)
Average number of large shells per batch     ...    13.81 (93.95%)
Average number of large basis fcns per batch ...    30.48 (93.20%)
Maximum spatial batch extension              ...  15.12, 21.59, 21.59 au
Average spatial batch extension              ...   5.39,  8.42,  8.66 au

Time for grid setup =    0.005 sec

------------------------------
INITIAL GUESS: MODEL POTENTIAL
------------------------------
Loading Hartree-Fock densities                     ... done
Calculating cut-offs                               ... done
Setting up the integral package                    ... done
Initializing the effective Hamiltonian             ... done
Starting the Coulomb interaction                   ... done (   0.0 sec)
Reading the grid                                   ... done
Mapping shells                                     ... done
Starting the XC term evaluation                    ... done (   0.0 sec)
Transforming the Hamiltonian                       ... done (   0.0 sec)
Diagonalizing the Hamiltonian                      ... done (   0.0 sec)
Back transforming the eigenvectors                 ... done (   0.0 sec)
Now organizing SCF variables                       ... done
                      ------------------
                      INITIAL GUESS DONE (   0.1 sec)
                      ------------------
--------------
SCF ITERATIONS
--------------
ITER       Energy         Delta-E        Max-DP      RMS-DP      [F,P]     Damp
               ***  Starting incremental Fock matrix formation  ***
  0     -0.9768732101   0.000000000000 0.01356256  0.00060543  0.0448210 0.7000
  1     -0.9791757856  -0.002302575497 0.01382276  0.00061822  0.0383630 0.7000
                               ***Turning on DIIS***
  2     -0.9812943107  -0.002118525022 0.03954916  0.00178408  0.0319675 0.0000
  3     -0.9876893978  -0.006395087160 0.02148897  0.00092865  0.0136372 0.0000
  4     -0.9890992221  -0.001409824251 0.00554603  0.00027065  0.0032289 0.0000
  5     -0.9892503657  -0.000151143662 0.00203498  0.00010214  0.0010274 0.0000
  6     -0.9892662373  -0.000015871572 0.00160855  0.00007903  0.0003859 0.0000
  7     -0.9893039806  -0.000037743266 0.00023844  0.00001244  0.0000371 0.0000
  8     -0.9893108484  -0.000006867788 0.00000917  0.00000050  0.0000049 0.0000
                 **** Energy Check signals convergence ****

               *****************************************************
               *                     SUCCESS                       *
               *           SCF CONVERGED AFTER   9 CYCLES          *
               *****************************************************


----------------
TOTAL SCF ENERGY
----------------

Total Energy       :           -0.98931148 Eh             -26.92053 eV

Components:
Nuclear Repulsion  :            0.26458860 Eh               7.19982 eV
Electronic Energy  :           -1.25390008 Eh             -34.12036 eV
One Electron Energy:           -1.50461054 Eh             -40.94253 eV
Two Electron Energy:            0.25071046 Eh               6.82218 eV

Virial components:
Potential Energy   :           -2.03277589 Eh             -55.31464 eV
Kinetic Energy     :            1.04346442 Eh              28.39411 eV
Virial Ratio       :            1.94810274


---------------
SCF CONVERGENCE
---------------

  Last Energy change         ...   -6.2674e-07  Tolerance :   1.0000e-06
  Last MAX-Density change    ...    4.2602e-06  Tolerance :   1.0000e-05
  Last RMS-Density change    ...    2.1404e-07  Tolerance :   1.0000e-06
  Last DIIS Error            ...    9.6635e-07  Tolerance :   1.0000e-06

             **** THE GBW FILE WAS UPDATED (orca.gbw) ****
             **** DENSITY FILE WAS UPDATED (orca.scfp) ****
             **** ENERGY FILE WAS UPDATED (orca.en.tmp) ****
----------------------
UHF SPIN CONTAMINATION
----------------------

Expectation value of <S**2>     :     2.000000
Ideal value S*(S+1) for S=1.0   :     2.000000
Deviation                       :     0.000000

             **** THE GBW FILE WAS UPDATED (orca.gbw) ****
             **** DENSITY FILE WAS UPDATED (orca.scfp) ****
----------------
ORBITAL ENERGIES
----------------
                 SPIN UP ORBITALS
  NO   OCC          E(Eh)            E(eV) 
   0   1.0000      -0.558039       -15.1850 
   1   1.0000      -0.445151       -12.1132 
   2   0.0000       0.079426         2.1613 
   3   0.0000       0.094161         2.5623 
   4   0.0000       0.307855         8.3772 
   5   0.0000       0.307855         8.3772 
   6   0.0000       0.378768        10.3068 
   7   0.0000       0.446578        12.1520 
   8   0.0000       0.446578        12.1520 
   9   0.0000       0.494542        13.4572 
  10   0.0000       0.515007        14.0140 
  11   0.0000       0.688795        18.7431 
  12   0.0000       1.908856        51.9426 
  13   0.0000       1.908856        51.9426 
  14   0.0000       1.935050        52.6554 
  15   0.0000       1.935050        52.6554 
  16   0.0000       1.983884        53.9842 
  17   0.0000       1.993398        54.2431 
  18   0.0000       2.535640        68.9983 
  19   0.0000       2.692880        73.2770 
  20   0.0000       3.136889        85.3591 
  21   0.0000       3.190594        86.8205 
  22   0.0000       3.190594        86.8205 
  23   0.0000       3.239799        88.1594 
  24   0.0000       3.239799        88.1594 
  25   0.0000       3.251072        88.4662 
  26   0.0000       3.251072        88.4662 
  27   0.0000       3.329274        90.5942 
  28   0.0000       3.329274        90.5942 
  29   0.0000       3.663802        99.6971 
  30   0.0000       8.503387       231.3889 
  31   0.0000       8.503387       231.3889 
  32   0.0000       8.527751       232.0519 
  33   0.0000       8.527751       232.0519 
  34   0.0000       8.538152       232.3349 
  35   0.0000       8.617223       234.4866 

                 SPIN DOWN ORBITALS
  NO   OCC          E(Eh)            E(eV) 
   0   0.0000       0.000803         0.0218 
   1   0.0000       0.061813         1.6820 
   2   0.0000       0.129082         3.5125 
   3   0.0000       0.187071         5.0905 
   4   0.0000       0.367184         9.9916 
   5   0.0000       0.367184         9.9916 
   6   0.0000       0.454690        12.3728 
   7   0.0000       0.503638        13.7047 
   8   0.0000       0.503638        13.7047 
   9   0.0000       0.616931        16.7875 
  10   0.0000       0.640433        17.4271 
  11   0.0000       0.729379        19.8474 
  12   0.0000       2.005841        54.5817 
  13   0.0000       2.005841        54.5817 
  14   0.0000       2.030574        55.2547 
  15   0.0000       2.030574        55.2547 
  16   0.0000       2.072306        56.3903 
  17   0.0000       2.090514        56.8858 
  18   0.0000       2.663937        72.4894 
  19   0.0000       2.817154        76.6586 
  20   0.0000       3.199705        87.0684 
  21   0.0000       3.248878        88.4065 
  22   0.0000       3.248878        88.4065 
  23   0.0000       3.297023        89.7166 
  24   0.0000       3.297023        89.7166 
  25   0.0000       3.308108        90.0182 
  26   0.0000       3.308108        90.0182 
  27   0.0000       3.385200        92.1160 
  28   0.0000       3.385200        92.1160 
  29   0.0000       3.717133       101.1483 
  30   0.0000       8.570869       233.2252 
  31   0.0000       8.570869       233.2252 
  32   0.0000       8.594941       233.8802 
  33   0.0000       8.594941       233.8802 
  34   0.0000       8.605419       234.1653 
  35   0.0000       8.683583       236.2923 

                    ********************************
                    * MULLIKEN POPULATION ANALYSIS *
                    ********************************

--------------------------------------------
MULLIKEN ATOMIC CHARGES AND SPIN POPULATIONS
--------------------------------------------
   0 H :   -0.000000    1.000000
   1 H :   -0.000000    1.000000
Sum of atomic charges         :   -0.0000000
Sum of atomic spin populations:    2.0000000

-----------------------------------------------------
MULLIKEN REDUCED ORBITAL CHARGES AND SPIN POPULATIONS
-----------------------------------------------------
CHARGE
  0 H s       :     0.996389  s :     0.996389
      pz      :     0.000000  p :     0.003560
      px      :     0.003560
      py      :     0.000000
      dz2     :     0.000013  d :     0.000051
      dxz     :     0.000000
      dyz     :     0.000000
      dx2y2   :     0.000038
      dxy     :     0.000000
  1 H s       :     0.996389  s :     0.996389
      pz      :     0.000000  p :     0.003560
      px      :     0.003560
      py      :     0.000000
      dz2     :     0.000013  d :     0.000051
      dxz     :     0.000000
      dyz     :     0.000000
      dx2y2   :     0.000038
      dxy     :     0.000000

SPIN
  0 H s       :     0.996389  s :     0.996389
      pz      :     0.000000  p :     0.003560
      px      :     0.003560
      py      :     0.000000
      dz2     :     0.000013  d :     0.000051
      dxz     :     0.000000
      dyz     :     0.000000
      dx2y2   :     0.000038
      dxy     :     0.000000
  1 H s       :     0.996389  s :     0.996389
      pz      :     0.000000  p :     0.003560
      px      :     0.003560
      py      :     0.000000
      dz2     :     0.000013  d :     0.000051
      dxz     :     0.000000
      dyz     :     0.000000
      dx2y2   :     0.000038
      dxy     :     0.000000


                     *******************************
                     * LOEWDIN POPULATION ANALYSIS *
                     *******************************

-------------------------------------------
LOEWDIN ATOMIC CHARGES AND SPIN POPULATIONS
-------------------------------------------
   0 H :   -0.000000    1.000000
   1 H :   -0.000000    1.000000

----------------------------------------------------
LOEWDIN REDUCED ORBITAL CHARGES AND SPIN POPULATIONS
----------------------------------------------------
CHARGE
  0 H s       :     0.959812  s :     0.959812
      pz      :     0.000000  p :     0.039695
      px      :     0.039695
      py      :     0.000000
      dz2     :     0.000123  d :     0.000494
      dxz     :     0.000000
      dyz     :     0.000000
      dx2y2   :     0.000370
      dxy     :     0.000000
  1 H s       :     0.959812  s :     0.959812
      pz      :     0.000000  p :     0.039695
      px      :     0.039695
      py      :     0.000000
      dz2     :     0.000123  d :     0.000494
      dxz     :     0.000000
      dyz     :     0.000000
      dx2y2   :     0.000370
      dxy     :     0.000000

SPIN
  0 H s       :     0.959812  s :     0.959812
      pz      :     0.000000  p :     0.039695
      px      :     0.039695
      py      :     0.000000
      dz2     :     0.000123  d :     0.000494
      dxz     :     0.000000
      dyz     :     0.000000
      dx2y2   :     0.000370
      dxy     :     0.000000
  1 H s       :     0.959812  s :     0.959812
      pz      :     0.000000  p :     0.039695
      px      :     0.039695
      py      :     0.000000
      dz2     :     0.000123  d :     0.000494
      dxz     :     0.000000
      dyz     :     0.000000
      dx2y2   :     0.000370
      dxy     :     0.000000


                      *****************************
                      * MAYER POPULATION ANALYSIS *
                      *****************************

  NA   - Mulliken gross atomic population
  ZA   - Total nuclear charge
  QA   - Mulliken gross atomic charge
  VA   - Mayer's total valence
  BVA  - Mayer's bonded valence
  FA   - Mayer's free valence

  ATOM       NA         ZA         QA         VA         BVA        FA
  0 H      1.0000     1.0000    -0.0000     0.9865    -0.0270     1.0135
  1 H      1.0000     1.0000     0.0000     0.9865    -0.0270     1.0135

  Mayer bond orders larger than 0.100000


Local spin analysis not attempted because no beta electrons available

                ***UHF Natural Orbitals were saved in orca.unso***


                ***UHF Natural Orbitals were saved in orca.uno***

QR-MO GENERATION
 Dim     =   36
 Mult    =    3
 NEl     =    2
 N(DOMO) =    0
 N(SOMO) =    2
 N(VMO)  =   34


                ***Quasi-Restricted Orbitals were saved in orca.qro***

Orbital Energies of Quasi-Restricted MO's
   0( 1) :    -0.238015 a.u.    -6.477 eV alpha=  -15.185 beta=    2.232
   1( 1) :    -0.126033 a.u.    -3.430 eV alpha=  -12.113 beta=    5.254
   2( 0) :     0.079426 a.u.     2.161 eV
   3( 0) :     0.094161 a.u.     2.562 eV
   4( 0) :     0.307855 a.u.     8.377 eV
   5( 0) :     0.307855 a.u.     8.377 eV
   6( 0) :     0.378768 a.u.    10.307 eV
   7( 0) :     0.446578 a.u.    12.152 eV
   8( 0) :     0.446578 a.u.    12.152 eV
   9( 0) :     0.494542 a.u.    13.457 eV
  10( 0) :     0.515007 a.u.    14.014 eV
  11( 0) :     0.688795 a.u.    18.743 eV
  12( 0) :     1.908856 a.u.    51.943 eV
  13( 0) :     1.908856 a.u.    51.943 eV
  14( 0) :     1.935051 a.u.    52.655 eV
  15( 0) :     1.935051 a.u.    52.655 eV
  16( 0) :     1.983884 a.u.    53.984 eV
  17( 0) :     1.993398 a.u.    54.243 eV
  18( 0) :     2.535641 a.u.    68.998 eV
  19( 0) :     2.692880 a.u.    73.277 eV
  20( 0) :     3.136889 a.u.    85.359 eV
  21( 0) :     3.190594 a.u.    86.820 eV
  22( 0) :     3.190594 a.u.    86.820 eV
  23( 0) :     3.239799 a.u.    88.159 eV
  24( 0) :     3.239799 a.u.    88.159 eV
  25( 0) :     3.251072 a.u.    88.466 eV
  26( 0) :     3.251072 a.u.    88.466 eV
  27( 0) :     3.329274 a.u.    90.594 eV
  28( 0) :     3.329274 a.u.    90.594 eV
  29( 0) :     3.663802 a.u.    99.697 eV
  30( 0) :     8.503388 a.u.   231.389 eV
  31( 0) :     8.503388 a.u.   231.389 eV
  32( 0) :     8.527751 a.u.   232.052 eV
  33( 0) :     8.527751 a.u.   232.052 eV
  34( 0) :     8.538152 a.u.   232.335 eV
  35( 0) :     8.617224 a.u.   234.487 eV
------------------------------------------------------------------------------
                           ORCA ORBITAL LOCALIZATION
------------------------------------------------------------------------------

Input orbitals are from                  ... orca.uno
Output orbitals are to                   ... orca.unoloc
Max. number of iterations                ... 64
Localizations seeded randomly            ... on
Convergence tolerance                    ... 1.000e-05
Using relative localization threshhold   ... 1.000e-05
Treshold for strong local MOs            ... 0.000e+00
Treshold for bond MOs                    ... 1.000e-01
Operator                                 ... 0
Orbital range for localization           ... 0 to 1
Localization criterion                   ... PIPEK-MEZEY
Entering Jacobi type localization:
Using Cholesky decomposition as initial guess.
Initial value of the localization sum :     2.061804
ITERATION   0 : L=    2.0784024289 DL=  1.66e-02 (MAX-T)=   3.563 
ITERATION   1 : L=    2.0784024289 DL=  0.00e+00 (MAX-T)=   0.000 
ITERATION   2 : L=    2.0784024289 DL=  0.00e+00 (MAX-T)=   0.000 
LOCALIZATION SUM CONVERGED


------------------------------------------------------------------------------- 
                    LOCALIZED MOLECULAR ORBITAL COMPOSITIONS                   
------------------------------------------------------------------------------- 

The Mulliken populations for each LMO on each atom are computed
The LMO`s will be ordered according to atom index and type
  (A) Strongly localized MO`s have populations of >=0.000 on one atom
  (B) Two center bond orbitals have populations of >=0.100 on two atoms
  (C) Other MO`s are considered to be `delocalized`

FOUND  -   2 strongly local MO`s
       -   0 two center bond MO`s
       -   0 significantly delocalized MO`s

Rather strongly localized orbitals:
MO   1:   1H  -   1.019231
MO   0:   0H  -   1.019231
Localized MO's were stored in: orca.unoloc

----------------------------
 BROKEN SYMMETRY INFORMATION
----------------------------

first open orbital = 0
last open orbital  = 1
HOMO(alpha)        = 0
HOMO(beta)         = 0
The new occupation numbers
   0:    1.000    1.000
   1:    0.000    0.000
   2:    0.000    0.000
   3:    0.000    0.000
   4:    0.000    0.000
   5:    0.000    0.000
   6:    0.000    0.000
   7:    0.000    0.000
   8:    0.000    0.000
   9:    0.000    0.000
  10:    0.000    0.000
  11:    0.000    0.000
  12:    0.000    0.000
  13:    0.000    0.000
  14:    0.000    0.000
  15:    0.000    0.000
  16:    0.000    0.000
  17:    0.000    0.000
  18:    0.000    0.000
  19:    0.000    0.000
  20:    0.000    0.000
  21:    0.000    0.000
  22:    0.000    0.000
  23:    0.000    0.000
  24:    0.000    0.000
  25:    0.000    0.000
  26:    0.000    0.000
  27:    0.000    0.000
  28:    0.000    0.000
  29:    0.000    0.000
  30:    0.000    0.000
  31:    0.000    0.000
  32:    0.000    0.000
  33:    0.000    0.000
  34:    0.000    0.000
  35:    0.000    0.000

--------------
SCF ITERATIONS
--------------
ITER       Energy         Delta-E        Max-DP      RMS-DP      [F,P]     Damp
               ***  Starting incremental Fock matrix formation  ***
  0     -0.9865942144   0.000000000000 0.00514953  0.00026697  0.0112253 0.7000
  1     -0.9896136063  -0.003019391889 0.00588879  0.00029131  0.0080607 0.7000
                               ***Turning on DIIS***
  2     -0.9924534480  -0.002839841709 0.01797384  0.00087021  0.0052972 0.0000
  3     -1.0021198833  -0.009666435307 0.00508091  0.00024153  0.0019125 0.0000
  4     -1.0034941582  -0.001374274910 0.00249636  0.00011828  0.0020043 0.0000
  5     -1.0028477537   0.000646404480 0.00282329  0.00014169  0.0018886 0.0000
  6     -1.0014969141   0.001350839640 0.00455933  0.00024063  0.0013747 0.0000
  7     -1.0029815375  -0.001484623436 0.00301461  0.00015685  0.0005834 0.0000
  8     -1.0038106153  -0.000829077784 0.00020306  0.00000765  0.0001100 0.0000
  9     -1.0039857919  -0.000175176584 0.00019391  0.00000969  0.0000373 0.0000
 10     -1.0039129899   0.000072801943 0.00001633  0.00000089  0.0000032 0.0000
                            ***DIIS convergence achieved***

               *****************************************************
               *                     SUCCESS                       *
               *           SCF CONVERGED AFTER  11 CYCLES          *
               *****************************************************


----------------
TOTAL SCF ENERGY
----------------

Total Energy       :           -1.00391840 Eh             -27.31801 eV

Components:
Nuclear Repulsion  :            0.26458860 Eh               7.19982 eV
Electronic Energy  :           -1.26850700 Eh             -34.51783 eV
One Electron Energy:           -1.53977905 Eh             -41.89952 eV
Two Electron Energy:            0.27127204 Eh               7.38169 eV

Virial components:
Potential Energy   :           -1.97808055 Eh             -53.82631 eV
Kinetic Energy     :            0.97416214 Eh              26.50830 eV
Virial Ratio       :            2.03054549


---------------
SCF CONVERGENCE
---------------

  Last Energy change         ...   -5.4108e-06  Tolerance :   1.0000e-06
  Last MAX-Density change    ...    1.3367e-06  Tolerance :   1.0000e-05
  Last RMS-Density change    ...    5.7595e-08  Tolerance :   1.0000e-06
  Last DIIS Error            ...    4.4041e-07  Tolerance :   1.0000e-06

             **** THE GBW FILE WAS UPDATED (orca.gbw) ****
             **** DENSITY FILE WAS UPDATED (orca.scfp) ****
             **** ENERGY FILE WAS UPDATED (orca.en.tmp) ****
----------------------
UHF SPIN CONTAMINATION
----------------------

Expectation value of <S**2>     :     0.902824
Ideal value S*(S+1) for S=0.0   :     0.000000
Deviation                       :     0.902824

             **** THE GBW FILE WAS UPDATED (orca.gbw) ****
             **** DENSITY FILE WAS UPDATED (orca.scfp) ****
----------------
ORBITAL ENERGIES
----------------
                 SPIN UP ORBITALS
  NO   OCC          E(Eh)            E(eV) 
   0   1.0000      -0.498618       -13.5681 
   1   0.0000       0.034104         0.9280 
   2   0.0000       0.086363         2.3501 
   3   0.0000       0.150314         4.0902 
   4   0.0000       0.332354         9.0438 
   5   0.0000       0.332354         9.0438 
   6   0.0000       0.413930        11.2636 
   7   0.0000       0.481098        13.0913 
   8   0.0000       0.481098        13.0913 
   9   0.0000       0.514610        14.0032 
  10   0.0000       0.621286        16.9061 
  11   0.0000       0.711158        19.3516 
  12   0.0000       1.921636        52.2904 
  13   0.0000       1.921636        52.2904 
  14   0.0000       1.992238        54.2115 
  15   0.0000       2.015361        54.8408 
  16   0.0000       2.015361        54.8408 
  17   0.0000       2.076691        56.5096 
  18   0.0000       2.578577        70.1666 
  19   0.0000       2.767433        75.3057 
  20   0.0000       3.165284        86.1318 
  21   0.0000       3.213124        87.4335 
  22   0.0000       3.213124        87.4335 
  23   0.0000       3.243968        88.2729 
  24   0.0000       3.243968        88.2729 
  25   0.0000       3.299043        89.7715 
  26   0.0000       3.299043        89.7715 
  27   0.0000       3.360326        91.4391 
  28   0.0000       3.360326        91.4391 
  29   0.0000       3.690295       100.4180 
  30   0.0000       8.507231       231.4935 
  31   0.0000       8.507231       231.4935 
  32   0.0000       8.553294       232.7470 
  33   0.0000       8.574849       233.3335 
  34   0.0000       8.574849       233.3335 
  35   0.0000       8.653902       235.4847 

                 SPIN DOWN ORBITALS
  NO   OCC          E(Eh)            E(eV) 
   0   1.0000      -0.498618       -13.5681 
   1   0.0000       0.034104         0.9280 
   2   0.0000       0.086363         2.3501 
   3   0.0000       0.150314         4.0902 
   4   0.0000       0.332354         9.0438 
   5   0.0000       0.332354         9.0438 
   6   0.0000       0.413930        11.2636 
   7   0.0000       0.481098        13.0913 
   8   0.0000       0.481098        13.0913 
   9   0.0000       0.514610        14.0032 
  10   0.0000       0.621286        16.9061 
  11   0.0000       0.711158        19.3516 
  12   0.0000       1.921636        52.2904 
  13   0.0000       1.921636        52.2904 
  14   0.0000       1.992238        54.2115 
  15   0.0000       2.015361        54.8408 
  16   0.0000       2.015361        54.8408 
  17   0.0000       2.076691        56.5096 
  18   0.0000       2.578577        70.1666 
  19   0.0000       2.767433        75.3057 
  20   0.0000       3.165284        86.1318 
  21   0.0000       3.213124        87.4335 
  22   0.0000       3.213124        87.4335 
  23   0.0000       3.243968        88.2729 
  24   0.0000       3.243968        88.2729 
  25   0.0000       3.299043        89.7715 
  26   0.0000       3.299043        89.7715 
  27   0.0000       3.360326        91.4391 
  28   0.0000       3.360326        91.4391 
  29   0.0000       3.690295       100.4180 
  30   0.0000       8.507231       231.4935 
  31   0.0000       8.507231       231.4935 
  32   0.0000       8.553294       232.7470 
  33   0.0000       8.574849       233.3335 
  34   0.0000       8.574849       233.3335 
  35   0.0000       8.653902       235.4847 

                    ********************************
                    * MULLIKEN POPULATION ANALYSIS *
                    ********************************

--------------------------------------------
MULLIKEN ATOMIC CHARGES AND SPIN POPULATIONS
--------------------------------------------
   0 H :    0.000000    0.971004
   1 H :   -0.000000   -0.971004
Sum of atomic charges         :   -0.0000000
Sum of atomic spin populations:   -0.0000000

-----------------------------------------------------
MULLIKEN REDUCED ORBITAL CHARGES AND SPIN POPULATIONS
-----------------------------------------------------
CHARGE
  0 H s       :     0.997421  s :     0.997421
      pz      :     0.000000  p :     0.002538
      px      :     0.002538
      py      :     0.000000
      dz2     :     0.000010  d :     0.000041
      dxz     :     0.000000
      dyz     :     0.000000
      dx2y2   :     0.000031
      dxy     :     0.000000
  1 H s       :     0.997421  s :     0.997421
      pz      :     0.000000  p :     0.002538
      px      :     0.002538
      py      :     0.000000
      dz2     :     0.000010  d :     0.000041
      dxz     :     0.000000
      dyz     :     0.000000
      dx2y2   :     0.000031
      dxy     :     0.000000

SPIN
  0 H s       :     0.973380  s :     0.973380
      pz      :     0.000000  p :    -0.002337
      px      :    -0.002337
      py      :    -0.000000
      dz2     :    -0.000010  d :    -0.000039
      dxz     :    -0.000000
      dyz     :     0.000000
      dx2y2   :    -0.000029
      dxy     :    -0.000000
  1 H s       :    -0.973380  s :    -0.973380
      pz      :    -0.000000  p :     0.002337
      px      :     0.002337
      py      :     0.000000
      dz2     :     0.000010  d :     0.000039
      dxz     :    -0.000000
      dyz     :     0.000000
      dx2y2   :     0.000029
      dxy     :    -0.000000


                     *******************************
                     * LOEWDIN POPULATION ANALYSIS *
                     *******************************

-------------------------------------------
LOEWDIN ATOMIC CHARGES AND SPIN POPULATIONS
-------------------------------------------
   0 H :   -0.000000    0.853229
   1 H :   -0.000000   -0.853229

----------------------------------------------------
LOEWDIN REDUCED ORBITAL CHARGES AND SPIN POPULATIONS
----------------------------------------------------
CHARGE
  0 H s       :     0.968597  s :     0.968597
      pz      :     0.000000  p :     0.031009
      px      :     0.031009
      py      :     0.000000
      dz2     :     0.000099  d :     0.000395
      dxz     :     0.000000
      dyz     :     0.000000
      dx2y2   :     0.000296
      dxy     :     0.000000
  1 H s       :     0.968597  s :     0.968597
      pz      :     0.000000  p :     0.031009
      px      :     0.031009
      py      :     0.000000
      dz2     :     0.000099  d :     0.000395
      dxz     :     0.000000
      dyz     :     0.000000
      dx2y2   :     0.000296
      dxy     :     0.000000

SPIN
  0 H s       :     0.883698  s :     0.883698
      pz      :     0.000000  p :    -0.030096
      px      :    -0.030096
      py      :    -0.000000
      dz2     :    -0.000093  d :    -0.000373
      dxz     :     0.000000
      dyz     :    -0.000000
      dx2y2   :    -0.000280
      dxy     :    -0.000000
  1 H s       :    -0.883698  s :    -0.883698
      pz      :    -0.000000  p :     0.030096
      px      :     0.030096
      py      :     0.000000
      dz2     :     0.000093  d :     0.000373
      dxz     :    -0.000000
      dyz     :     0.000000
      dx2y2   :     0.000280
      dxy     :     0.000000


                      *****************************
                      * MAYER POPULATION ANALYSIS *
                      *****************************

  NA   - Mulliken gross atomic population
  ZA   - Total nuclear charge
  QA   - Mulliken gross atomic charge
  VA   - Mayer's total valence
  BVA  - Mayer's bonded valence
  FA   - Mayer's free valence

  ATOM       NA         ZA         QA         VA         BVA        FA
  0 H      1.0000     1.0000     0.0000     1.0032     0.0572     0.9461
  1 H      1.0000     1.0000    -0.0000     1.0032     0.0572     0.9461

  Mayer bond orders larger than 0.100000


-------
TIMINGS
-------

Total SCF time: 0 days 0 hours 0 min 1 sec 

Total time                  ....       1.217 sec
Sum of individual times     ....       1.616 sec  (132.8%)

Fock matrix formation       ....       1.488 sec  (122.3%)
Diagonalization             ....       0.008 sec  (  0.7%)
Density matrix formation    ....       0.000 sec  (  0.0%)
Population analysis         ....       0.001 sec  (  0.1%)
Initial guess               ....       0.110 sec  (  9.1%)
Orbital Transformation      ....       0.000 sec  (  0.0%)
Orbital Orthonormalization  ....       0.000 sec  (  0.0%)
DIIS solution               ....       0.003 sec  (  0.3%)
--------------------------
UHF CORRESPONDING ORBITALS
--------------------------
Transforming orbitals                         ... done
Choosing virtual orbitals in the orth. comp.  ... done

                ***UHF Corresponding Orbitals were saved in orca.uco***


Now the overlap between the corresponding orbitals will be plotted
Since there are an equal number of alpha and beta orbitals each orbital in the
alpha set is matched by an orbital in the beta set. If all overlaps are close to
one you have a normal UHF solution with some spin polarization
If you have a broken symmetry solution there will be overlaps that are
significantly smaller than one. These orbitals are the non-orthogonal magnetic
orbitals of the broken symmetry UHF solution.

----------------------
 Orbital    Overlap(*)
----------------------
   0:      0.31173
(*)  the overlap is weighted by the product of occupation numbers
     NOTE: the whole analysis is not valid for fractional occupations

------------------------------------------
BROKEN SYMMETRY MAGNETIC COUPLING ANALYSIS
------------------------------------------

S(High-Spin)      =   1.0    
<S**2>(High-Spin) =   2.0000    
<S**2>(BrokenSym) =   0.9028    
E(High-Spin)      =    -0.989311 Eh
E(BrokenSym)      =    -1.003918 Eh
E(High-Spin)-E(BrokenSym)= 0.3975 eV   3205.553 cm**-1 (ANTIFERROMAGNETIC coupling)

          ---------------------------------------------------------
          | Spin-Hamiltonian Analysis based on H(HDvV)= -2J*SA*SB |
    -------                                                       -----------
    | J(1) =   -3205.55 cm**-1    (from -(E[HS]-E[BS])/Smax**2)             |
    | J(2) =   -1602.78 cm**-1    (from -(E[HS]-E[BS])/(Smax*(Smax+1))      |
    | J(3) =   -2921.64 cm**-1    (from -(E[HS]-E[BS])/(<S**2>HS-<S**2>BS)) |
    -------------------------------------------------------------------------

  J(1): (a) A.P. Ginsberg J. Am. Chem. Soc. 102 (1980), 111
        (b) L. Noodleman J. Chem. Phys. 74 (1981), 5737
        (c) L. Noodleman E.R. Davidson Chem. Phys. 109 (1986), 131
  J(2)  (d) A. Bencini D. Gatteschi J. Am. Chem. Soc. 108 (1980), 5763
  J(3)  (e) K. Yamaguchi Y. Takahara T. Fueno in: V.H. Smith (Ed.)
            Applied Quantum Chemistry. Reidel, Dordrecht (1986), pp 155
        (f) T.Soda et al. Chem. Phys. Lett., 319, (2000), 223

-------
TIMINGS
-------

Total SCF time: 0 days 0 hours 0 min 5 sec 

Total time                  ....       5.263 sec
Sum of individual times     ....       4.460 sec  ( 84.7%)

Fock matrix formation       ....       0.000 sec  (  0.0%)
Diagonalization             ....       0.000 sec  (  0.0%)
Density matrix formation    ....       0.000 sec  (  0.0%)
Population analysis         ....       4.460 sec  ( 84.7%)
Initial guess               ....       0.000 sec  (  0.0%)
Orbital Transformation      ....       0.000 sec  (  0.0%)
Orbital Orthonormalization  ....       0.000 sec  (  0.0%)
DIIS solution               ....       0.000 sec  (  0.0%)

------------------------------------------------------------------------------
                                ORCA  MP2 
------------------------------------------------------------------------------

Freezing NCore=0 chemical core electrons

----------
MP2 ENERGY (disk based algorithm)
----------

Dimension of the basis                    ...   36
Memory devoted to MP2                     ...  256 MB   
Data format for buffers                   ... DOUBLE
Compression type for matrix containers    ... UNCOMPRESSED

-------------------------------
PARTIAL EXCHANGE TRANSFORMATION
-------------------------------

Transformation type                        ... two-operators
Generation of integrals (i,mue|j,nue)      ... ON
Generation of integrals (mue,kappa|nue,tau)... OFF
Generation of integrals (i,mue|a,nue)      ... OFF
Dimension of the basis                     ...   36
Number of internal alpha-MOs               ...    1 (   0-   0)
Number of internal beta-MOs                ...    1 (   0-   0)
Pair cutoff                                ... 1.000e-11 Eh
Number of AO pairs in the trafo            ...  666
Total Number of distinct AO pairs          ...  666
Memory devoted for trafo                   ...  256.0 MB 
Max. Number of MO pairs treated together   ... 25890      
Number Format for Storage                  ... Double (8 Byte)
Integral package used                      ... LIBINT

Starting integral evaluation:
    ... done with AO integral generation
Closing buffer AOK[aa] ( 0.00 GB; CompressionRatio= 0.27)
Closing buffer AOK[bb] ( 0.00 GB; CompressionRatio= 0.27)
Closing buffer AOK[ab] ( 0.00 GB; CompressionRatio= 0.27)
Closing buffer AOK[ba] ( 0.00 GB; CompressionRatio= 0.27)
Collecting buffer AOK 
Number of alpha/alpha MO pairs in trafo    ...    1
Number of beta /beta  MO pairs in trafo    ...    1
Number of alpha/ beta MO pairs in trafo    ...    1
------------------------
SORTING OF (i,mue|j,nue)
------------------------

SORTING OF ALPHA/ALPHA PAIRS
IBATCH = 1 of  1
Closing buffer KAO[aa] ( 0.00 GB; CompressionRatio= 1.00)
Collecting buffer KAO 
SORTING OF BETA /BETA  PAIRS
IBATCH = 1 of  1
Closing buffer KAO[bb] ( 0.00 GB; CompressionRatio= 1.00)
Collecting buffer KAO 
SORTING OF ALPHA/BETA  PAIRS
IBATCH = 1 of  1
Closing buffer KAO[ab] ( 0.00 GB; CompressionRatio= 0.998843930636)
Collecting buffer KAO[ab] 
N(AO-Batches) Done                         ...     33774 
N(AO-Batches) Skipped                      ...      1042 
N(IJ)-pairs Skipped                        ...         0 
TOTAL TIME for half transformation         ...     0.032 sec
AO-integral generation                     ...     0.018 sec
Half transformation                        ...     0.010 sec
K-integral sorting                         ...     0.002 sec

Finished integral transformation - now doing MP2 part

OPERATOR COMBINATION   0   0: ij=(  0..  0,  0..  0)
OPERATOR COMBINATION   0   1: ij=(  0..  0,  0..  0)
OPERATOR COMBINATION   1   1: ij=(  0..  0,  0..  0)

Correlation energy components
 E2 and T2 for alpha/alpha pairs :      0.000000000 Eh 
 E2 and T2 for beta/beta   pairs :      0.000000000 Eh 
 E2 and T2 for alpha/beta  pairs :     -0.002246393 Eh 

-----------------------------------------------
 MP2 CORRELATION ENERGY   :     -0.002246393 Eh
-----------------------------------------------


-------
TIMINGS
-------
Total time                :    0.107 sec
Integral trafo            :    0.032 sec ( 30.4%)
K(i,j)                    :    0.000 sec (  0.1%)
T(i,j)                    :    0.000 sec (  0.0%)

---------------------------------------
MP2 TOTAL ENERGY:       -1.006164794 Eh
---------------------------------------

-------------------------   --------------------
FINAL SINGLE POINT ENERGY        -1.006164793647
-------------------------   --------------------

Storing actual gbw-file in orca.001.gbw ... done

                            ***************************************
                            *     ORCA property calculations      *
                            ***************************************


  WARNING: The energy has been calculated at the MP2 level but the densities
           used in the property calculations are still SCF densities
           MP2 response densities have not been calculated 
           use %mp2 Density relaxed end
           or  %mp2 Density unrelaxed end

                                    ---------------------
                                    Active property flags
                                    ---------------------
   (+) Dipole Moment


------------------------------------------------------------------------------
                       ORCA ELECTRIC PROPERTIES CALCULATION
------------------------------------------------------------------------------

Dipole Moment Calculation                       ... on
Quadrupole Moment Calculation                   ... off
Polarizability Calculation                      ... off
GBWName                                         ... orca.gbw
Electron density file                           ... orca.scfp
The origin for moment calculation is the CENTER OF MASS  = ( 1.889726,  0.000000  0.000000)

-------------
DIPOLE MOMENT
-------------
                                X             Y             Z
Electronic contribution:     -0.00000       0.00000       0.00000
Nuclear contribution   :      0.00000       0.00000       0.00000
                        -----------------------------------------
Total Dipole Moment    :     -0.00000       0.00000       0.00000
                        -----------------------------------------
Magnitude (a.u.)       :      0.00000
Magnitude (Debye)      :      0.00000



--------------------
Rotational spectrum 
--------------------
 
Rotational constants in cm-1:     0.000000     8.361927     8.361927 
Rotational constants in MHz :     0.000000 250684.265719 250684.265719 

 Dipole components along the rotational axes: 
x,y,z [a.u.] :    -0.000000     0.000000     0.000000 
x,y,z [Debye]:    -0.000000     0.000000     0.000000 

 

         *************************************************************
                                TRAJECTORY STEP   2
                  R  :   1.95000000
         *************************************************************
---------------------------------
CARTESIAN COORDINATES (ANGSTROEM)
---------------------------------
  H      0.000000    0.000000    0.000000
  H      1.950000    0.000000    0.000000

----------------------------
CARTESIAN COORDINATES (A.U.)
----------------------------
  NO LB      ZA    FRAG     MASS         X           Y           Z
   0 H     1.0000    0     1.008    0.000000    0.000000    0.000000
   1 H     1.0000    0     1.008    3.684966    0.000000    0.000000

--------------------------------
INTERNAL COORDINATES (ANGSTROEM)
--------------------------------
 H      0   0   0     0.000000000000     0.00000000     0.00000000
 H      1   0   0     1.950000000000     0.00000000     0.00000000

---------------------------
INTERNAL COORDINATES (A.U.)
---------------------------
 H      0   0   0     0.000000000000     0.00000000     0.00000000
 H      1   0   0     3.684965961146     0.00000000     0.00000000


Diagonalization of the overlap matrix:
Smallest eigenvalue                        ... 2.370e-02
Time for diagonalization                   ...    0.000 sec
Threshold for overlap eigenvalues          ... 1.000e-08
Number of eigenvalues below threshold      ... 0
Time for construction of square roots      ...    0.000 sec
Total time needed                          ...    0.001 sec

--------------
SCF ITERATIONS
--------------
ITER       Energy         Delta-E        Max-DP      RMS-DP      [F,P]     Damp
               ***  Starting incremental Fock matrix formation  ***
  0     -1.0046775766   0.000000000000 0.00017892  0.00001010  0.0017238 0.7000
  1     -1.0046822616  -0.000004684975 0.00019692  0.00001027  0.0013080 0.7000
                               ***Turning on DIIS***
  2     -1.0046865319  -0.000004270285 0.00061334  0.00003208  0.0009556 0.0000
  3     -1.0046543455   0.000032186349 0.00029362  0.00001850  0.0002144 0.0000
  4     -1.0046202668   0.000034078732 0.00029604  0.00001378  0.0001062 0.0000
  5     -1.0046809606  -0.000060693835 0.00008865  0.00000348  0.0000296 0.0000
  6     -1.0047055790  -0.000024618336 0.00000649  0.00000032  0.0000030 0.0000
                 **** Energy Check signals convergence ****

               *****************************************************
               *                     SUCCESS                       *
               *           SCF CONVERGED AFTER   7 CYCLES          *
               *****************************************************

Total Energy       :           -1.00470487 Eh             -27.33941 eV
  Last Energy change         ...    7.0595e-07  Tolerance :   1.0000e-06
  Last MAX-Density change    ...    2.1136e-06  Tolerance :   1.0000e-05
             **** THE GBW FILE WAS UPDATED (orca.gbw) ****
             **** DENSITY FILE WAS UPDATED (orca.scfp) ****
             **** ENERGY FILE WAS UPDATED (orca.en.tmp) ****
----------------------
UHF SPIN CONTAMINATION
----------------------

Expectation value of <S**2>     :     0.887545
Ideal value S*(S+1) for S=0.0   :     0.000000
Deviation                       :     0.887545

             **** THE GBW FILE WAS UPDATED (orca.gbw) ****
             **** DENSITY FILE WAS UPDATED (orca.scfp) ****
Total SCF time: 0 days 0 hours 0 min 0 sec 

------------------------------------------------------------------------------
                                ORCA  MP2 
------------------------------------------------------------------------------

Freezing NCore=0 chemical core electrons

----------
MP2 ENERGY (disk based algorithm)
----------

Dimension of the basis                    ...   36
Memory devoted to MP2                     ...  256 MB   
Data format for buffers                   ... DOUBLE
Compression type for matrix containers    ... UNCOMPRESSED

-------------------------------
PARTIAL EXCHANGE TRANSFORMATION
-------------------------------

Transformation type                        ... two-operators
Generation of integrals (i,mue|j,nue)      ... ON
Generation of integrals (mue,kappa|nue,tau)... OFF
Generation of integrals (i,mue|a,nue)      ... OFF
Dimension of the basis                     ...   36
Number of internal alpha-MOs               ...    1 (   0-   0)
Number of internal beta-MOs                ...    1 (   0-   0)
Pair cutoff                                ... 1.000e-11 Eh
Number of AO pairs in the trafo            ...  666
Total Number of distinct AO pairs          ...  666
Memory devoted for trafo                   ...  256.0 MB 
Max. Number of MO pairs treated together   ... 25890      
Number Format for Storage                  ... Double (8 Byte)
Integral package used                      ... LIBINT

Starting integral evaluation:
    ... done with AO integral generation
Closing buffer AOK[aa] ( 0.00 GB; CompressionRatio= 0.27)
Closing buffer AOK[bb] ( 0.00 GB; CompressionRatio= 0.27)
Closing buffer AOK[ab] ( 0.00 GB; CompressionRatio= 0.27)
Closing buffer AOK[ba] ( 0.00 GB; CompressionRatio= 0.27)
Collecting buffer AOK 
Number of alpha/alpha MO pairs in trafo    ...    1
Number of beta /beta  MO pairs in trafo    ...    1
Number of alpha/ beta MO pairs in trafo    ...    1
------------------------
SORTING OF (i,mue|j,nue)
------------------------

SORTING OF ALPHA/ALPHA PAIRS
IBATCH = 1 of  1
Closing buffer KAO[aa] ( 0.00 GB; CompressionRatio= 1.00)
Collecting buffer KAO 
SORTING OF BETA /BETA  PAIRS
IBATCH = 1 of  1
Closing buffer KAO[bb] ( 0.00 GB; CompressionRatio= 1.00)
Collecting buffer KAO 
SORTING OF ALPHA/BETA  PAIRS
IBATCH = 1 of  1
Closing buffer KAO[ab] ( 0.00 GB; CompressionRatio= 0.998843930636)
Collecting buffer KAO[ab] 
N(AO-Batches) Done                         ...     33936 
N(AO-Batches) Skipped                      ...       880 
N(IJ)-pairs Skipped                        ...         0 
TOTAL TIME for half transformation         ...     0.034 sec
AO-integral generation                     ...     0.020 sec
Half transformation                        ...     0.011 sec
K-integral sorting                         ...     0.002 sec

Finished integral transformation - now doing MP2 part

OPERATOR COMBINATION   0   0: ij=(  0..  0,  0..  0)
OPERATOR COMBINATION   0   1: ij=(  0..  0,  0..  0)
OPERATOR COMBINATION   1   1: ij=(  0..  0,  0..  0)

Correlation energy components
 E2 and T2 for alpha/alpha pairs :      0.000000000 Eh 
 E2 and T2 for beta/beta   pairs :      0.000000000 Eh 
 E2 and T2 for alpha/beta  pairs :     -0.002630633 Eh 

-----------------------------------------------
 MP2 CORRELATION ENERGY   :     -0.002630633 Eh
-----------------------------------------------


-------
TIMINGS
-------
Total time                :    0.107 sec
Integral trafo            :    0.034 sec ( 32.0%)
K(i,j)                    :    0.000 sec (  0.1%)
T(i,j)                    :    0.000 sec (  0.0%)

---------------------------------------
MP2 TOTAL ENERGY:       -1.007335506 Eh
---------------------------------------

-------------------------   --------------------
FINAL SINGLE POINT ENERGY        -1.007335506153
-------------------------   --------------------

Storing actual gbw-file in orca.002.gbw ... done

                            ***************************************
                            *     ORCA property calculations      *
                            ***************************************


  WARNING: The energy has been calculated at the MP2 level but the densities
           used in the property calculations are still SCF densities
           MP2 response densities have not been calculated 
           use %mp2 Density relaxed end
           or  %mp2 Density unrelaxed end

                                    ---------------------
                                    Active property flags
                                    ---------------------
   (+) Dipole Moment


------------------------------------------------------------------------------
                       ORCA ELECTRIC PROPERTIES CALCULATION
------------------------------------------------------------------------------

Dipole Moment Calculation                       ... on
Quadrupole Moment Calculation                   ... off
Polarizability Calculation                      ... off
GBWName                                         ... orca.gbw
Electron density file                           ... orca.scfp
The origin for moment calculation is the CENTER OF MASS  = ( 1.842483,  0.000000  0.000000)

-------------
DIPOLE MOMENT
-------------
                                X             Y             Z
Electronic contribution:     -0.00000      -0.00000      -0.00000
Nuclear contribution   :      0.00000       0.00000       0.00000
                        -----------------------------------------
Total Dipole Moment    :     -0.00000      -0.00000      -0.00000
                        -----------------------------------------
Magnitude (a.u.)       :      0.00000
Magnitude (Debye)      :      0.00000



--------------------
Rotational spectrum 
--------------------
 
Rotational constants in cm-1:     0.000000     8.796241     8.796241 
Rotational constants in MHz :     0.000000 263704.684517 263704.684517 

 Dipole components along the rotational axes: 
x,y,z [a.u.] :    -0.000000    -0.000000    -0.000000 
x,y,z [Debye]:    -0.000000    -0.000000    -0.000000 

 

         *************************************************************
                                TRAJECTORY STEP   3
                  R  :   1.90000000
         *************************************************************
---------------------------------
CARTESIAN COORDINATES (ANGSTROEM)
---------------------------------
  H      0.000000    0.000000    0.000000
  H      1.900000    0.000000    0.000000

----------------------------
CARTESIAN COORDINATES (A.U.)
----------------------------
  NO LB      ZA    FRAG     MASS         X           Y           Z
   0 H     1.0000    0     1.008    0.000000    0.000000    0.000000
   1 H     1.0000    0     1.008    3.590480    0.000000    0.000000

--------------------------------
INTERNAL COORDINATES (ANGSTROEM)
--------------------------------
 H      0   0   0     0.000000000000     0.00000000     0.00000000
 H      1   0   0     1.900000000000     0.00000000     0.00000000

---------------------------
INTERNAL COORDINATES (A.U.)
---------------------------
 H      0   0   0     0.000000000000     0.00000000     0.00000000
 H      1   0   0     3.590479654450     0.00000000     0.00000000


Diagonalization of the overlap matrix:
Smallest eigenvalue                        ... 2.254e-02
Time for diagonalization                   ...    0.000 sec
Threshold for overlap eigenvalues          ... 1.000e-08
Number of eigenvalues below threshold      ... 0
Time for construction of square roots      ...    0.000 sec
Total time needed                          ...    0.001 sec

--------------
SCF ITERATIONS
--------------
ITER       Energy         Delta-E        Max-DP      RMS-DP      [F,P]     Damp
               ***  Starting incremental Fock matrix formation  ***
  0     -1.0056010721   0.000000000000 0.00019610  0.00001121  0.0019068 0.7000
  1     -1.0056067201  -0.000005648026 0.00021683  0.00001145  0.0014483 0.7000
                               ***Turning on DIIS***
  2     -1.0056118980  -0.000005177857 0.00063979  0.00003338  0.0010592 0.0000
  3     -1.0055750289   0.000036869024 0.00035717  0.00002273  0.0002406 0.0000
  4     -1.0055186710   0.000056357972 0.00038134  0.00001805  0.0001287 0.0000
  5     -1.0055955448  -0.000076873869 0.00013135  0.00000520  0.0000408 0.0000
  6     -1.0056372677  -0.000041722870 0.00001259  0.00000060  0.0000039 0.0000
                            ***DIIS convergence achieved***

               *****************************************************
               *                     SUCCESS                       *
               *           SCF CONVERGED AFTER   7 CYCLES          *
               *****************************************************

Total Energy       :           -1.00563524 Eh             -27.36473 eV
  Last Energy change         ...    2.0293e-06  Tolerance :   1.0000e-06
  Last MAX-Density change    ...    3.6211e-06  Tolerance :   1.0000e-05
             **** THE GBW FILE WAS UPDATED (orca.gbw) ****
             **** DENSITY FILE WAS UPDATED (orca.scfp) ****
             **** ENERGY FILE WAS UPDATED (orca.en.tmp) ****
----------------------
UHF SPIN CONTAMINATION
----------------------

Expectation value of <S**2>     :     0.869842
Ideal value S*(S+1) for S=0.0   :     0.000000
Deviation                       :     0.869842

             **** THE GBW FILE WAS UPDATED (orca.gbw) ****
             **** DENSITY FILE WAS UPDATED (orca.scfp) ****
Total SCF time: 0 days 0 hours 0 min 0 sec 

------------------------------------------------------------------------------
                                ORCA  MP2 
------------------------------------------------------------------------------

Freezing NCore=0 chemical core electrons

----------
MP2 ENERGY (disk based algorithm)
----------

Dimension of the basis                    ...   36
Memory devoted to MP2                     ...  256 MB   
Data format for buffers                   ... DOUBLE
Compression type for matrix containers    ... UNCOMPRESSED

-------------------------------
PARTIAL EXCHANGE TRANSFORMATION
-------------------------------

Transformation type                        ... two-operators
Generation of integrals (i,mue|j,nue)      ... ON
Generation of integrals (mue,kappa|nue,tau)... OFF
Generation of integrals (i,mue|a,nue)      ... OFF
Dimension of the basis                     ...   36
Number of internal alpha-MOs               ...    1 (   0-   0)
Number of internal beta-MOs                ...    1 (   0-   0)
Pair cutoff                                ... 1.000e-11 Eh
Number of AO pairs in the trafo            ...  666
Total Number of distinct AO pairs          ...  666
Memory devoted for trafo                   ...  256.0 MB 
Max. Number of MO pairs treated together   ... 25890      
Number Format for Storage                  ... Double (8 Byte)
Integral package used                      ... LIBINT

Starting integral evaluation:
    ... done with AO integral generation
Closing buffer AOK[aa] ( 0.00 GB; CompressionRatio= 0.27)
Closing buffer AOK[bb] ( 0.00 GB; CompressionRatio= 0.27)
Closing buffer AOK[ab] ( 0.00 GB; CompressionRatio= 0.27)
Closing buffer AOK[ba] ( 0.00 GB; CompressionRatio= 0.27)
Collecting buffer AOK 
Number of alpha/alpha MO pairs in trafo    ...    1
Number of beta /beta  MO pairs in trafo    ...    1
Number of alpha/ beta MO pairs in trafo    ...    1
------------------------
SORTING OF (i,mue|j,nue)
------------------------

SORTING OF ALPHA/ALPHA PAIRS
IBATCH = 1 of  1
Closing buffer KAO[aa] ( 0.00 GB; CompressionRatio= 1.00)
Collecting buffer KAO 
SORTING OF BETA /BETA  PAIRS
IBATCH = 1 of  1
Closing buffer KAO[bb] ( 0.00 GB; CompressionRatio= 1.00)
Collecting buffer KAO 
SORTING OF ALPHA/BETA  PAIRS
IBATCH = 1 of  1
Closing buffer KAO[ab] ( 0.00 GB; CompressionRatio= 0.998843930636)
Collecting buffer KAO[ab] 
N(AO-Batches) Done                         ...     34063 
N(AO-Batches) Skipped                      ...       753 
N(IJ)-pairs Skipped                        ...         0 
TOTAL TIME for half transformation         ...     0.033 sec
AO-integral generation                     ...     0.019 sec
Half transformation                        ...     0.010 sec
K-integral sorting                         ...     0.002 sec

Finished integral transformation - now doing MP2 part

OPERATOR COMBINATION   0   0: ij=(  0..  0,  0..  0)
OPERATOR COMBINATION   0   1: ij=(  0..  0,  0..  0)
OPERATOR COMBINATION   1   1: ij=(  0..  0,  0..  0)

Correlation energy components
 E2 and T2 for alpha/alpha pairs :      0.000000000 Eh 
 E2 and T2 for beta/beta   pairs :      0.000000000 Eh 
 E2 and T2 for alpha/beta  pairs :     -0.003087770 Eh 

-----------------------------------------------
 MP2 CORRELATION ENERGY   :     -0.003087770 Eh
-----------------------------------------------


-------
TIMINGS
-------
Total time                :    0.107 sec
Integral trafo            :    0.033 sec ( 31.1%)
K(i,j)                    :    0.000 sec (  0.1%)
T(i,j)                    :    0.000 sec (  0.0%)

---------------------------------------
MP2 TOTAL ENERGY:       -1.008723009 Eh
---------------------------------------

-------------------------   --------------------
FINAL SINGLE POINT ENERGY        -1.008723008515
-------------------------   --------------------

Storing actual gbw-file in orca.003.gbw ... done

                            ***************************************
                            *     ORCA property calculations      *
                            ***************************************


  WARNING: The energy has been calculated at the MP2 level but the densities
           used in the property calculations are still SCF densities
           MP2 response densities have not been calculated 
           use %mp2 Density relaxed end
           or  %mp2 Density unrelaxed end

                                    ---------------------
                                    Active property flags
                                    ---------------------
   (+) Dipole Moment


------------------------------------------------------------------------------
                       ORCA ELECTRIC PROPERTIES CALCULATION
------------------------------------------------------------------------------

Dipole Moment Calculation                       ... on
Quadrupole Moment Calculation                   ... off
Polarizability Calculation                      ... off
GBWName                                         ... orca.gbw
Electron density file                           ... orca.scfp
The origin for moment calculation is the CENTER OF MASS  = ( 1.795240,  0.000000  0.000000)

-------------
DIPOLE MOMENT
-------------
                                X             Y             Z
Electronic contribution:     -0.00000       0.00000      -0.00000
Nuclear contribution   :      0.00000       0.00000       0.00000
                        -----------------------------------------
Total Dipole Moment    :     -0.00000       0.00000      -0.00000
                        -----------------------------------------
Magnitude (a.u.)       :      0.00000
Magnitude (Debye)      :      0.00000



--------------------
Rotational spectrum 
--------------------
 
Rotational constants in cm-1:     0.000000     9.265293     9.265293 
Rotational constants in MHz :     0.000000 277766.499411 277766.499411 

 Dipole components along the rotational axes: 
x,y,z [a.u.] :    -0.000000     0.000000    -0.000000 
x,y,z [Debye]:    -0.000000     0.000000    -0.000000 

 

         *************************************************************
                                TRAJECTORY STEP   4
                  R  :   1.85000000
         *************************************************************
---------------------------------
CARTESIAN COORDINATES (ANGSTROEM)
---------------------------------
  H      0.000000    0.000000    0.000000
  H      1.850000    0.000000    0.000000

----------------------------
CARTESIAN COORDINATES (A.U.)
----------------------------
  NO LB      ZA    FRAG     MASS         X           Y           Z
   0 H     1.0000    0     1.008    0.000000    0.000000    0.000000
   1 H     1.0000    0     1.008    3.495993    0.000000    0.000000

--------------------------------
INTERNAL COORDINATES (ANGSTROEM)
--------------------------------
 H      0   0   0     0.000000000000     0.00000000     0.00000000
 H      1   0   0     1.850000000000     0.00000000     0.00000000

---------------------------
INTERNAL COORDINATES (A.U.)
---------------------------
 H      0   0   0     0.000000000000     0.00000000     0.00000000
 H      1   0   0     3.495993347754     0.00000000     0.00000000


Diagonalization of the overlap matrix:
Smallest eigenvalue                        ... 2.132e-02
Time for diagonalization                   ...    0.000 sec
Threshold for overlap eigenvalues          ... 1.000e-08
Number of eigenvalues below threshold      ... 0
Time for construction of square roots      ...    0.000 sec
Total time needed                          ...    0.001 sec

--------------
SCF ITERATIONS
--------------
ITER       Energy         Delta-E        Max-DP      RMS-DP      [F,P]     Damp
               ***  Starting incremental Fock matrix formation  ***
  0     -1.0066937451   0.000000000000 0.00021462  0.00001245  0.0021102 0.7000
  1     -1.0067005507  -0.000006805548 0.00023863  0.00001278  0.0016046 0.7000
                               ***Turning on DIIS***
  2     -1.0067068277  -0.000006276996 0.00070709  0.00003743  0.0011748 0.0000
  3     -1.0066641378   0.000042689849 0.00041557  0.00002626  0.0002652 0.0000
  4     -1.0065948316   0.000069306259 0.00046126  0.00002158  0.0001473 0.0000
  5     -1.0066809752  -0.000086143584 0.00017514  0.00000698  0.0000503 0.0000
  6     -1.0067382250  -0.000057249788 0.00001417  0.00000069  0.0000049 0.0000
                            ***DIIS convergence achieved***

               *****************************************************
               *                     SUCCESS                       *
               *           SCF CONVERGED AFTER   7 CYCLES          *
               *****************************************************

Total Energy       :           -1.00673610 Eh             -27.39468 eV
  Last Energy change         ...    2.1200e-06  Tolerance :   1.0000e-06
  Last MAX-Density change    ...    4.4458e-06  Tolerance :   1.0000e-05
             **** THE GBW FILE WAS UPDATED (orca.gbw) ****
             **** DENSITY FILE WAS UPDATED (orca.scfp) ****
             **** ENERGY FILE WAS UPDATED (orca.en.tmp) ****
----------------------
UHF SPIN CONTAMINATION
----------------------

Expectation value of <S**2>     :     0.849321
Ideal value S*(S+1) for S=0.0   :     0.000000
Deviation                       :     0.849321

             **** THE GBW FILE WAS UPDATED (orca.gbw) ****
             **** DENSITY FILE WAS UPDATED (orca.scfp) ****
Total SCF time: 0 days 0 hours 0 min 0 sec 

------------------------------------------------------------------------------
                                ORCA  MP2 
------------------------------------------------------------------------------

Freezing NCore=0 chemical core electrons

----------
MP2 ENERGY (disk based algorithm)
----------

Dimension of the basis                    ...   36
Memory devoted to MP2                     ...  256 MB   
Data format for buffers                   ... DOUBLE
Compression type for matrix containers    ... UNCOMPRESSED

-------------------------------
PARTIAL EXCHANGE TRANSFORMATION
-------------------------------

Transformation type                        ... two-operators
Generation of integrals (i,mue|j,nue)      ... ON
Generation of integrals (mue,kappa|nue,tau)... OFF
Generation of integrals (i,mue|a,nue)      ... OFF
Dimension of the basis                     ...   36
Number of internal alpha-MOs               ...    1 (   0-   0)
Number of internal beta-MOs                ...    1 (   0-   0)
Pair cutoff                                ... 1.000e-11 Eh
Number of AO pairs in the trafo            ...  666
Total Number of distinct AO pairs          ...  666
Memory devoted for trafo                   ...  256.0 MB 
Max. Number of MO pairs treated together   ... 25890      
Number Format for Storage                  ... Double (8 Byte)
Integral package used                      ... LIBINT

Starting integral evaluation:
    ... done with AO integral generation
Closing buffer AOK[aa] ( 0.00 GB; CompressionRatio= 0.27)
Closing buffer AOK[bb] ( 0.00 GB; CompressionRatio= 0.27)
Closing buffer AOK[ab] ( 0.00 GB; CompressionRatio= 0.27)
Closing buffer AOK[ba] ( 0.00 GB; CompressionRatio= 0.27)
Collecting buffer AOK 
Number of alpha/alpha MO pairs in trafo    ...    1
Number of beta /beta  MO pairs in trafo    ...    1
Number of alpha/ beta MO pairs in trafo    ...    1
------------------------
SORTING OF (i,mue|j,nue)
------------------------

SORTING OF ALPHA/ALPHA PAIRS
IBATCH = 1 of  1
Closing buffer KAO[aa] ( 0.00 GB; CompressionRatio= 1.00)
Collecting buffer KAO 
SORTING OF BETA /BETA  PAIRS
IBATCH = 1 of  1
Closing buffer KAO[bb] ( 0.00 GB; CompressionRatio= 1.00)
Collecting buffer KAO 
SORTING OF ALPHA/BETA  PAIRS
IBATCH = 1 of  1
Closing buffer KAO[ab] ( 0.00 GB; CompressionRatio= 0.998843930636)
Collecting buffer KAO[ab] 
N(AO-Batches) Done                         ...     34194 
N(AO-Batches) Skipped                      ...       622 
N(IJ)-pairs Skipped                        ...         0 
TOTAL TIME for half transformation         ...     0.034 sec
AO-integral generation                     ...     0.019 sec
Half transformation                        ...     0.010 sec
K-integral sorting                         ...     0.002 sec

Finished integral transformation - now doing MP2 part

OPERATOR COMBINATION   0   0: ij=(  0..  0,  0..  0)
OPERATOR COMBINATION   0   1: ij=(  0..  0,  0..  0)
OPERATOR COMBINATION   1   1: ij=(  0..  0,  0..  0)

Correlation energy components
 E2 and T2 for alpha/alpha pairs :      0.000000000 Eh 
 E2 and T2 for beta/beta   pairs :      0.000000000 Eh 
 E2 and T2 for alpha/beta  pairs :     -0.003632663 Eh 

-----------------------------------------------
 MP2 CORRELATION ENERGY   :     -0.003632663 Eh
-----------------------------------------------


-------
TIMINGS
-------
Total time                :    0.107 sec
Integral trafo            :    0.034 sec ( 31.7%)
K(i,j)                    :    0.000 sec (  0.1%)
T(i,j)                    :    0.000 sec (  0.0%)

---------------------------------------
MP2 TOTAL ENERGY:       -1.010368767 Eh
---------------------------------------

-------------------------   --------------------
FINAL SINGLE POINT ENERGY        -1.010368767458
-------------------------   --------------------

Storing actual gbw-file in orca.004.gbw ... done

                            ***************************************
                            *     ORCA property calculations      *
                            ***************************************


  WARNING: The energy has been calculated at the MP2 level but the densities
           used in the property calculations are still SCF densities
           MP2 response densities have not been calculated 
           use %mp2 Density relaxed end
           or  %mp2 Density unrelaxed end

                                    ---------------------
                                    Active property flags
                                    ---------------------
   (+) Dipole Moment


------------------------------------------------------------------------------
                       ORCA ELECTRIC PROPERTIES CALCULATION
------------------------------------------------------------------------------

Dipole Moment Calculation                       ... on
Quadrupole Moment Calculation                   ... off
Polarizability Calculation                      ... off
GBWName                                         ... orca.gbw
Electron density file                           ... orca.scfp
The origin for moment calculation is the CENTER OF MASS  = ( 1.747997,  0.000000  0.000000)

-------------
DIPOLE MOMENT
-------------
                                X             Y             Z
Electronic contribution:     -0.00000      -0.00000       0.00000
Nuclear contribution   :      0.00000       0.00000       0.00000
                        -----------------------------------------
Total Dipole Moment    :     -0.00000      -0.00000       0.00000
                        -----------------------------------------
Magnitude (a.u.)       :      0.00000
Magnitude (Debye)      :      0.00000



[...]

-----------------------------------------------
 MP2 CORRELATION ENERGY   :     -0.031620883 Eh
-----------------------------------------------


-------
TIMINGS
-------
Total time                :    0.107 sec
Integral trafo            :    0.034 sec ( 31.3%)
K(i,j)                    :    0.000 sec (  0.1%)
T(i,j)                    :    0.000 sec (  0.0%)

---------------------------------------
MP2 TOTAL ENERGY:       -1.046633436 Eh
---------------------------------------

-------------------------   --------------------
FINAL SINGLE POINT ENERGY        -1.046633435602
-------------------------   --------------------

Storing actual gbw-file in orca.032.gbw ... done

                            ***************************************
                            *     ORCA property calculations      *
                            ***************************************


  WARNING: The energy has been calculated at the MP2 level but the densities
           used in the property calculations are still SCF densities
           MP2 response densities have not been calculated 
           use %mp2 Density relaxed end
           or  %mp2 Density unrelaxed end

                                    ---------------------
                                    Active property flags
                                    ---------------------
   (+) Dipole Moment


------------------------------------------------------------------------------
                       ORCA ELECTRIC PROPERTIES CALCULATION
------------------------------------------------------------------------------

Dipole Moment Calculation                       ... on
Quadrupole Moment Calculation                   ... off
Polarizability Calculation                      ... off
GBWName                                         ... orca.gbw
Electron density file                           ... orca.scfp
The origin for moment calculation is the CENTER OF MASS  = ( 0.425188,  0.000000  0.000000)

-------------
DIPOLE MOMENT
-------------
                                X             Y             Z
Electronic contribution:     -0.00000      -0.00000      -0.00000
Nuclear contribution   :      0.00000       0.00000       0.00000
                        -----------------------------------------
Total Dipole Moment    :     -0.00000      -0.00000      -0.00000
                        -----------------------------------------
Magnitude (a.u.)       :      0.00000
Magnitude (Debye)      :      0.00000



--------------------
Rotational spectrum 
--------------------
 
Rotational constants in cm-1:     0.000000   165.173867   165.173867 
Rotational constants in MHz :     0.000000 4951787.964811 4951787.964811 

 Dipole components along the rotational axes: 
x,y,z [a.u.] :    -0.000000    -0.000000    -0.000000 
x,y,z [Debye]:    -0.000000    -0.000000    -0.000000 

 

         *************************************************************
                                TRAJECTORY STEP  33
                  R  :   0.40000000
         *************************************************************
---------------------------------
CARTESIAN COORDINATES (ANGSTROEM)
---------------------------------
  H      0.000000    0.000000    0.000000
  H      0.400000    0.000000    0.000000

----------------------------
CARTESIAN COORDINATES (A.U.)
----------------------------
  NO LB      ZA    FRAG     MASS         X           Y           Z
   0 H     1.0000    0     1.008    0.000000    0.000000    0.000000
   1 H     1.0000    0     1.008    0.755890    0.000000    0.000000

--------------------------------
INTERNAL COORDINATES (ANGSTROEM)
--------------------------------
 H      0   0   0     0.000000000000     0.00000000     0.00000000
 H      1   0   0     0.400000000000     0.00000000     0.00000000

---------------------------
INTERNAL COORDINATES (A.U.)
---------------------------
 H      0   0   0     0.000000000000     0.00000000     0.00000000
 H      1   0   0     0.755890453569     0.00000000     0.00000000


Diagonalization of the overlap matrix:
Smallest eigenvalue                        ... 3.129e-04
Time for diagonalization                   ...    0.000 sec
Threshold for overlap eigenvalues          ... 1.000e-08
Number of eigenvalues below threshold      ... 0
Time for construction of square roots      ...    0.000 sec
Total time needed                          ...    0.001 sec

--------------
SCF ITERATIONS
--------------
ITER       Energy         Delta-E        Max-DP      RMS-DP      [F,P]     Damp
               ***  Starting incremental Fock matrix formation  ***
  0     -0.9401574684   0.000000000000 0.00278771  0.00019255  0.0346949 0.7000
  1     -0.9404393897  -0.000281921239 0.00214543  0.00014465  0.0267356 0.7000
                               ***Turning on DIIS***
  2     -0.9406527426  -0.000213352929 0.00520038  0.00034770  0.0199254 0.0000
  3     -0.9406731087  -0.000020366097 0.00041760  0.00003084  0.0027433 0.0000
  4     -0.9411143421  -0.000441233415 0.00012417  0.00000979  0.0005371 0.0000
  5     -0.9411926441  -0.000078301962 0.00002744  0.00000192  0.0000822 0.0000
  6     -0.9412037441  -0.000011100025 0.00000077  0.00000008  0.0000052 0.0000
                 **** Energy Check signals convergence ****

               *****************************************************
               *                     SUCCESS                       *
               *           SCF CONVERGED AFTER   7 CYCLES          *
               *****************************************************

Total Energy       :           -0.94120448 Eh             -25.61148 eV
  Last Energy change         ...   -7.3743e-07  Tolerance :   1.0000e-06
  Last MAX-Density change    ...    1.3734e-07  Tolerance :   1.0000e-05
             **** THE GBW FILE WAS UPDATED (orca.gbw) ****
             **** DENSITY FILE WAS UPDATED (orca.scfp) ****
             **** ENERGY FILE WAS UPDATED (orca.en.tmp) ****
----------------------
UHF SPIN CONTAMINATION
----------------------

Expectation value of <S**2>     :    -0.000000
Ideal value S*(S+1) for S=0.0   :     0.000000
Deviation                       :    -0.000000

             **** THE GBW FILE WAS UPDATED (orca.gbw) ****
             **** DENSITY FILE WAS UPDATED (orca.scfp) ****
Total SCF time: 0 days 0 hours 0 min 0 sec 

------------------------------------------------------------------------------
                                ORCA  MP2 
------------------------------------------------------------------------------

Freezing NCore=0 chemical core electrons

----------
MP2 ENERGY (disk based algorithm)
----------

Dimension of the basis                    ...   36
Memory devoted to MP2                     ...  256 MB   
Data format for buffers                   ... DOUBLE
Compression type for matrix containers    ... UNCOMPRESSED

-------------------------------
PARTIAL EXCHANGE TRANSFORMATION
-------------------------------

Transformation type                        ... two-operators
Generation of integrals (i,mue|j,nue)      ... ON
Generation of integrals (mue,kappa|nue,tau)... OFF
Generation of integrals (i,mue|a,nue)      ... OFF
Dimension of the basis                     ...   36
Number of internal alpha-MOs               ...    1 (   0-   0)
Number of internal beta-MOs                ...    1 (   0-   0)
Pair cutoff                                ... 1.000e-11 Eh
Number of AO pairs in the trafo            ...  666
Total Number of distinct AO pairs          ...  666
Memory devoted for trafo                   ...  256.0 MB 
Max. Number of MO pairs treated together   ... 25890      
Number Format for Storage                  ... Double (8 Byte)
Integral package used                      ... LIBINT

Starting integral evaluation:
    ... done with AO integral generation
Closing buffer AOK[aa] ( 0.00 GB; CompressionRatio= 0.27)
Closing buffer AOK[bb] ( 0.00 GB; CompressionRatio= 0.27)
Closing buffer AOK[ab] ( 0.00 GB; CompressionRatio= 0.27)
Closing buffer AOK[ba] ( 0.00 GB; CompressionRatio= 0.27)
Collecting buffer AOK 
Number of alpha/alpha MO pairs in trafo    ...    1
Number of beta /beta  MO pairs in trafo    ...    1
Number of alpha/ beta MO pairs in trafo    ...    1
------------------------
SORTING OF (i,mue|j,nue)
------------------------

SORTING OF ALPHA/ALPHA PAIRS
IBATCH = 1 of  1
Closing buffer KAO[aa] ( 0.00 GB; CompressionRatio= 1.00)
Collecting buffer KAO 
SORTING OF BETA /BETA  PAIRS
IBATCH = 1 of  1
Closing buffer KAO[bb] ( 0.00 GB; CompressionRatio= 1.00)
Collecting buffer KAO 
SORTING OF ALPHA/BETA  PAIRS
IBATCH = 1 of  1
Closing buffer KAO[ab] ( 0.00 GB; CompressionRatio= 0.998843930636)
Collecting buffer KAO[ab] 
N(AO-Batches) Done                         ...     34816 
N(AO-Batches) Skipped                      ...         0 
N(IJ)-pairs Skipped                        ...         0 
TOTAL TIME for half transformation         ...     0.033 sec
AO-integral generation                     ...     0.019 sec
Half transformation                        ...     0.010 sec
K-integral sorting                         ...     0.002 sec

Finished integral transformation - now doing MP2 part

OPERATOR COMBINATION   0   0: ij=(  0..  0,  0..  0)
OPERATOR COMBINATION   0   1: ij=(  0..  0,  0..  0)
OPERATOR COMBINATION   1   1: ij=(  0..  0,  0..  0)

Correlation energy components
 E2 and T2 for alpha/alpha pairs :      0.000000000 Eh 
 E2 and T2 for beta/beta   pairs :      0.000000000 Eh 
 E2 and T2 for alpha/beta  pairs :     -0.031704751 Eh 

-----------------------------------------------
 MP2 CORRELATION ENERGY   :     -0.031704751 Eh
-----------------------------------------------


-------
TIMINGS
-------
Total time                :    0.106 sec
Integral trafo            :    0.033 sec ( 31.3%)
K(i,j)                    :    0.000 sec (  0.1%)
T(i,j)                    :    0.000 sec (  0.0%)

---------------------------------------
MP2 TOTAL ENERGY:       -0.972909232 Eh
---------------------------------------

-------------------------   --------------------
FINAL SINGLE POINT ENERGY        -0.972909232161
-------------------------   --------------------

Storing actual gbw-file in orca.033.gbw ... done

                            ***************************************
                            *     ORCA property calculations      *
                            ***************************************


  WARNING: The energy has been calculated at the MP2 level but the densities
           used in the property calculations are still SCF densities
           MP2 response densities have not been calculated 
           use %mp2 Density relaxed end
           or  %mp2 Density unrelaxed end

                                    ---------------------
                                    Active property flags
                                    ---------------------
   (+) Dipole Moment


------------------------------------------------------------------------------
                       ORCA ELECTRIC PROPERTIES CALCULATION
------------------------------------------------------------------------------

Dipole Moment Calculation                       ... on
Quadrupole Moment Calculation                   ... off
Polarizability Calculation                      ... off
GBWName                                         ... orca.gbw
Electron density file                           ... orca.scfp
The origin for moment calculation is the CENTER OF MASS  = ( 0.377945,  0.000000  0.000000)

-------------
DIPOLE MOMENT
-------------
                                X             Y             Z
Electronic contribution:     -0.00000       0.00000       0.00000
Nuclear contribution   :      0.00000       0.00000       0.00000
                        -----------------------------------------
Total Dipole Moment    :     -0.00000       0.00000       0.00000
                        -----------------------------------------
Magnitude (a.u.)       :      0.00000
Magnitude (Debye)      :      0.00000



--------------------
Rotational spectrum 
--------------------
 
Rotational constants in cm-1:     0.000000   209.048176   209.048176 
Rotational constants in MHz :     0.000000 6267106.642963 6267106.642963 

 Dipole components along the rotational axes: 
x,y,z [a.u.] :    -0.000000     0.000000     0.000000 
x,y,z [Debye]:    -0.000000     0.000000     0.000000 

 
                              **** TRAJECTORY DONE ***

                         SUMMARY OF THE CALCULATED SURFACE

------------------
TRAJECTORY RESULTS
------------------

Column   1: R

The Calculated Surface using the 'Actual Energy'
   2.00000000  -1.00616479
   1.95000000  -1.00733551
   1.90000000  -1.00872301
   1.85000000  -1.01036877
   1.80000000  -1.01232270
   1.75000000  -1.01464429
   1.70000000  -1.01740508
   1.65000000  -1.02069127
   1.60000000  -1.02460155
   1.55000000  -1.02927143
   1.50000000  -1.03484927
   1.45000000  -1.04151886
   1.40000000  -1.04950672
   1.35000000  -1.05908939
   1.30000000  -1.07060110
   1.25000000  -1.08445664
   1.20000000  -1.09813430
   1.15000000  -1.10789244
   1.10000000  -1.11734868
   1.05000000  -1.12661573
   1.00000000  -1.13554262
   0.95000000  -1.14392022
   0.90000000  -1.15147024
   0.85000000  -1.15782390
   0.80000000  -1.16249246
   0.75000000  -1.16482398
   0.70000000  -1.16393794
   0.65000000  -1.15862710
   0.60000000  -1.14721048
   0.55000000  -1.12730834
   0.50000000  -1.09548327
   0.45000000  -1.04663344
   0.40000000  -0.97290923

                        *******************************
                        *   FIT OF THE ACT-ENERGY PES *
                        *******************************
-------------------------------
POTENTIAL ENERGY SURFACE =   0
-------------------------------

Minimum found after 20 iterations
Equilibrium distance and its energy from the interpolated PES:
  Re      =   0.73658 Angstroem  (  1.39193 Bohr)
  E(Re)   =    -1.164946 Eh 
  dE/dR   = -4.244e-09 (1.216e-02 CHEB)
  d2E/dR2 =    0.389922 (   0.402013 CHEB) (   0.530057 NUM)
  d3E/dR3 =   -1.382954 (  46.879228 CHEB)

Spectroscopic constants:
  we =    4539.5 cm**-1 (based on SPLINE)
  we =    4609.3 cm**-1 (based on CHEB)
  we =    5292.7 cm**-1 (based on NUM)

Performing Morse fit ...
Morse-Fit Results:
 Te(adiabatic)   =  238393.1 cm**-1         = 29.557 eV
 d2E/dR**2 (Morse)=   -624.608258942 
 d3E/dR**3 (Morse)=  33060.331054204 
 d4E/dR**4 (Morse)= -1361012.783498511 
 E0               =     -0.078746707 Eh  RMS=2.19e-03
 Re               =   0.31402 Angstroem      =  0.59342 Bohr RMS=2.16e-04)
 De(Morse)        = -27.30058 eV             =-220194.1 cm**-1 RMS=2.19e-03
 D0(Morse)        =      -nan eV
 beta             =  17.64324 au          RMS=3.38e-02
 we               =     -nan cm**-1
 wexe             =  37457.5 cm**-1
 Displacement   =   -0.4226 Angstroem      = -0.79851 Bohr

The Calculated Surface using the SCF energy
   2.00000000  -1.00391840
   1.95000000  -1.00470487
   1.90000000  -1.00563524
   1.85000000  -1.00673610
   1.80000000  -1.00803935
   1.75000000  -1.00958238
   1.70000000  -1.01140950
   1.65000000  -1.01357315
   1.60000000  -1.01613012
   1.55000000  -1.01916291
   1.50000000  -1.02275353
   1.45000000  -1.02700196
   1.40000000  -1.03202853
   1.35000000  -1.03797451
   1.30000000  -1.04500186
   1.25000000  -1.05330458
   1.20000000  -1.06302739
   1.15000000  -1.07309697
   1.10000000  -1.08307531
   1.05000000  -1.09282319
   1.00000000  -1.10218409
   0.95000000  -1.11094602
   0.90000000  -1.11883039
   0.85000000  -1.12546991
   0.80000000  -1.13037796
   0.75000000  -1.13290418
   0.70000000  -1.13216913
   0.65000000  -1.12696682
   0.60000000  -1.11561788
   0.55000000  -1.09574418
   0.50000000  -1.06390951
   0.45000000  -1.01501255
   0.40000000  -0.94120448

                        *******************************
                        *       FIT OF THE SCF PES    *
                        *******************************
-------------------------------
POTENTIAL ENERGY SURFACE =   0
-------------------------------

Minimum found after 17 iterations
Equilibrium distance and its energy from the interpolated PES:
  Re      =   0.73431 Angstroem  (  1.38765 Bohr)
  E(Re)   =    -1.133074 Eh 
  dE/dR   = -1.207e-08 (1.548e-02 CHEB)
  d2E/dR2 =    0.400706 (   0.478029 CHEB) (   0.526764 NUM)
  d3E/dR3 =   -1.381436 (  20.948328 CHEB)

Spectroscopic constants:
  we =    4601.9 cm**-1 (based on SPLINE)
  we =    5026.3 cm**-1 (based on CHEB)
  we =    5276.3 cm**-1 (based on NUM)

Performing Morse fit ...
Morse-Fit Results:
 Te(adiabatic)   = 1577672.1 cm**-1         =195.606 eV
 d2E/dR**2 (Morse)=  -3223.922465130 
 d3E/dR**3 (Morse)= 145567.973362895 
 d4E/dR**4 (Morse)= -5112138.523705084 
 E0               =      6.055328647 Eh  RMS=1.78e-02
 Re               =   0.23283 Angstroem      =  0.43998 Bohr RMS=3.85e-04)
 De(Morse)        = -193.63561 eV             =-1561776.7 cm**-1 RMS=1.78e-02
 D0(Morse)        =      -nan eV
 beta             =  15.05081 au          RMS=2.68e-02
 we               =     -nan cm**-1
 wexe             =  27258.6 cm**-1
 Displacement   =   -0.5015 Angstroem      = -0.94767 Bohr

The Calculated Surface using the MP2 energy
   2.00000000  -1.00616479
   1.95000000  -1.00733551
   1.90000000  -1.00872301
   1.85000000  -1.01036877
   1.80000000  -1.01232270
   1.75000000  -1.01464429
   1.70000000  -1.01740508
   1.65000000  -1.02069127
   1.60000000  -1.02460155
   1.55000000  -1.02927143
   1.50000000  -1.03484927
   1.45000000  -1.04151886
   1.40000000  -1.04950672
   1.35000000  -1.05908939
   1.30000000  -1.07060110
   1.25000000  -1.08445664
   1.20000000  -1.09813430
   1.15000000  -1.10789244
   1.10000000  -1.11734868
   1.05000000  -1.12661573
   1.00000000  -1.13554262
   0.95000000  -1.14392022
   0.90000000  -1.15147024
   0.85000000  -1.15782390
   0.80000000  -1.16249246
   0.75000000  -1.16482398
   0.70000000  -1.16393794
   0.65000000  -1.15862710
   0.60000000  -1.14721048
   0.55000000  -1.12730834
   0.50000000  -1.09548327
   0.45000000  -1.04663344
   0.40000000  -0.97290923

                        *******************************
                        *       FIT OF THE MP2 PES    *
                        *******************************
-------------------------------
POTENTIAL ENERGY SURFACE =   0
-------------------------------

Minimum found after 20 iterations
Equilibrium distance and its energy from the interpolated PES:
  Re      =   0.73658 Angstroem  (  1.39193 Bohr)
  E(Re)   =    -1.164946 Eh 
  dE/dR   = -4.244e-09 (1.216e-02 CHEB)
  d2E/dR2 =    0.389922 (   0.402013 CHEB) (   0.530057 NUM)
  d3E/dR3 =   -1.382954 (  46.879228 CHEB)

Spectroscopic constants:
  we =    4539.5 cm**-1 (based on SPLINE)
  we =    4609.3 cm**-1 (based on CHEB)
  we =    5292.7 cm**-1 (based on NUM)

Performing Morse fit ...
Morse-Fit Results:
 Te(adiabatic)   =  238393.1 cm**-1         = 29.557 eV
 d2E/dR**2 (Morse)=   -624.608258942 
 d3E/dR**3 (Morse)=  33060.331054204 
 d4E/dR**4 (Morse)= -1361012.783498511 
 E0               =     -0.078746707 Eh  RMS=2.19e-03
 Re               =   0.31402 Angstroem      =  0.59342 Bohr RMS=2.16e-04)
 De(Morse)        = -27.30058 eV             =-220194.1 cm**-1 RMS=2.19e-03
 D0(Morse)        =      -nan eV
 beta             =  17.64324 au          RMS=3.38e-02
 we               =     -nan cm**-1
 wexe             =  37457.5 cm**-1
 Displacement   =   -0.4226 Angstroem      = -0.79851 Bohr


Timings for individual modules:

Sum of individual times         ...       42.078 sec (=   0.701 min)
GTO integral calculation        ...        6.536 sec (=   0.109 min)  15.5 %
SCF iterations                  ...       30.935 sec (=   0.516 min)  73.5 %
MP2 module                      ...        4.606 sec (=   0.077 min)  10.9 %
                             ****ORCA TERMINATED NORMALLY****
TOTAL RUN TIME: 0 days 0 hours 0 minutes 45 seconds 647 msec
