
                                 *****************
                                 * O   R   C   A *
                                 *****************

           --- An Ab Initio, DFT and Semiempirical electronic structure package ---

                  #######################################################
                  #                        -***-                        #
                  #          Department of theory and spectroscopy      #
                  #               Directorship: Frank Neese             #
                  #        Max Planck Institute fuer Kohlenforschung    #
                  #                Kaiser Wilhelm Platz 1               #
                  #                 D-45470 Muelheim/Ruhr               #
                  #                      Germany                        #
                  #                                                     #
                  #                  All rights reserved                #
                  #                        -***-                        #
                  #######################################################


                         Program Version 4.2.1 -  RELEASE  -


 With contributions from (in alphabetic order):
   Daniel Aravena         : Magnetic Suceptibility
   Michael Atanasov       : Ab Initio Ligand Field Theory (pilot matlab implementation)
   Alexander A. Auer      : GIAO ZORA, VPT2
   Ute Becker             : Parallelization
   Giovanni Bistoni       : ED, misc. LED, open-shell LED, HFLD
   Martin Brehm           : Molecular dynamics
   Dmytro Bykov           : SCF Hessian
   Vijay G. Chilkuri      : MRCI spin determinant printing, contributions to CSF-ICE
   Dipayan Datta          : RHF DLPNO-CCSD density
   Achintya Kumar Dutta   : EOM-CC, STEOM-CC
   Dmitry Ganyushin       : Spin-Orbit,Spin-Spin,Magnetic field MRCI
   Miquel Garcia          : C-PCM Hessian, Gaussian charge scheme
   Yang Guo               : DLPNO-NEVPT2, CIM, IAO-localization
   Andreas Hansen         : Spin unrestricted coupled pair/coupled cluster methods
   Benjamin Helmich-Paris : CASSCF linear response (MC-RPA)
   Lee Huntington         : MR-EOM, pCC
   Robert Izsak           : Overlap fitted RIJCOSX, COSX-SCS-MP3, EOM
   Christian Kollmar      : KDIIS, OOCD, Brueckner-CCSD(T), CCSD density
   Simone Kossmann        : Meta GGA functionals, TD-DFT gradient, OOMP2, MP2 Hessian
   Martin Krupicka        : AUTO-CI
   Lucas Lang             : DCDCAS
   Dagmar Lenk            : GEPOL surface, SMD
   Dimitrios Liakos       : Extrapolation schemes; Compound Job, initial MDCI parallelization
   Dimitrios Manganas     : Further ROCIS development; embedding schemes
   Dimitrios Pantazis     : SARC Basis sets
   Taras Petrenko         : DFT Hessian,TD-DFT gradient, ASA, ECA, R-Raman, ABS, FL, XAS/XES, NRVS
   Peter Pinski           : DLPNO-MP2, DLPNO-MP2 Gradient
   Christoph Reimann      : Effective Core Potentials
   Marius Retegan         : Local ZFS, SOC
   Christoph Riplinger    : Optimizer, TS searches, QM/MM, DLPNO-CCSD(T), (RO)-DLPNO pert. Triples
   Tobias Risthaus        : Range-separated hybrids, TD-DFT gradient, RPA, STAB
   Michael Roemelt        : Original ROCIS implementation
   Masaaki Saitow         : Open-shell DLPNO-CCSD energy and density
   Barbara Sandhoefer     : DKH picture change effects
   Avijit Sen             : IP-ROCIS
   Kantharuban Sivalingam : CASSCF convergence, NEVPT2, FIC-MRCI
   Bernardo de Souza      : ESD, SOC TD-DFT
   Georgi Stoychev        : AutoAux, RI-MP2 NMR
   Willem Van den Heuvel  : Paramagnetic NMR
   Boris Wezisla          : Elementary symmetry handling
   Frank Wennmohs         : Technical directorship


 We gratefully acknowledge several colleagues who have allowed us to
 interface, adapt or use parts of their codes:
   Stefan Grimme, W. Hujo, H. Kruse,             : VdW corrections, initial TS optimization,
                  C. Bannwarth                     DFT functionals, gCP, sTDA/sTD-DF
   Ed Valeev, F. Pavosevic, A. Kumar             : LibInt (2-el integral package), F12 methods
   Garnet Chan, S. Sharma, J. Yang, R. Olivares  : DMRG
   Ulf Ekstrom                                   : XCFun DFT Library
   Mihaly Kallay                                 : mrcc  (arbitrary order and MRCC methods)
   Andreas Klamt, Michael Diedenhofen            : otool_cosmo (COSMO solvation model)
   Jiri Pittner, Ondrej Demel                    : Mk-CCSD
   Frank Weinhold                                : gennbo (NPA and NBO analysis)
   Christopher J. Cramer and Donald G. Truhlar   : smd solvation model
   Lars Goerigk                                  : TD-DFT with DH, B97 family of functionals
   V. Asgeirsson, H. Jonsson                     : NEB implementation
   FAccTs GmbH                                   : IRC, NEB, NEB-TS, Multilevel, MM, QM/MM, CI optimization
   S Lehtola, MJT Oliveira, MAL Marques          : LibXC Library


 Your calculation uses the libint2 library for the computation of 2-el integrals
 For citations please refer to: http://libint.valeyev.net

 Your ORCA version has been built with support for libXC version: 4.2.3
 For citations please refer to: https://tddft.org/programs/libxc/

 This ORCA versions uses:
   CBLAS   interface :  Fast vector & matrix operations
   LAPACKE interface :  Fast linear algebra routines
   SCALAPACK package :  Parallel linear algebra routines


----- Orbital basis set information -----
Your calculation utilizes the basis: 6-311++G(2df,2pd)
   H, Li - Ne  : R. Krishnan, J. S. Binkley, R. Seeger and J. A. Pople, J. Chem. Phys. 72, 650 (1980).
   Na - Ar     : A. D. McLean and G. S. Chandler J. Chem. Phys. 72, 5639, (1980).
   K  - Ca     : J.-P. Blaudeau, M. P. McGrath, L. A. Curtiss and L. Radom, J. Chem. Phys. 107, 5016 (1997).
   Ga - Kr     : L. A. Curtiss, M. P. McGrath, J.-P. Blandeau, N. E. Davis, R. C. Binning and L. Radom, J. Chem. Phys. 103, 6104 (1995).
   Pol./Diff.
   H, Li - Cl  : T. Clark, J. Chandrasekhar and P. v. R. Schleyer, J. Comp. Chem. 4, 294 (1983).
   H - Ne      : M. J. Frisch, J. A. Pople and J. S. Binkley, J. Chem. Phys. 80, 3265 (1984).

================================================================================
                                        WARNINGS
                       Please study these warnings very carefully!
================================================================================


WARNING: MDCI localization with Augmented Hessian Foster-Boys
  ===> : Switching off randomization!

WARNING: Post HF methods need fully converged wavefunctions
  ===> : Setting SCFConvForced true
         You can overwrite this default with %scf ConvForced false 


INFO   : the flag for use of LIBINT has been found!

================================================================================
                                       INPUT FILE
================================================================================
NAME = orca.inp
|  1> !QCISD(T) 6-311++G(2df,2pd) ENERGY
|  2> 
|  3> %paras
|  4> 	R = 0.4, 2.0, 33 # x-axis of H1
|  5> end
|  6> 
|  7> *xyz 0 1
|  8> H    0.0000000    0.0000000    0.0000000
|  9> H    {R}                0.0000000    0.0000000
| 10> **                         ****END OF INPUT****
================================================================================

                       ******************************
                       * Parameter Scan Calculation *
                       ******************************

Trajectory settings:
    -> SCF surface will be mapped
    -> MDCI surface will be mapped

There are 1 parameter(s) to be scanned
             R: range=   0.40000000 ..   2.00000000  steps=   33
There will be   33 energy evaluations


         *************************************************************
                                TRAJECTORY STEP   1
                  R  :   0.40000000
         *************************************************************
---------------------------------
CARTESIAN COORDINATES (ANGSTROEM)
---------------------------------
  H      0.000000    0.000000    0.000000
  H      0.400000    0.000000    0.000000

----------------------------
CARTESIAN COORDINATES (A.U.)
----------------------------
  NO LB      ZA    FRAG     MASS         X           Y           Z
   0 H     1.0000    0     1.008    0.000000    0.000000    0.000000
   1 H     1.0000    0     1.008    0.755890    0.000000    0.000000

--------------------------------
INTERNAL COORDINATES (ANGSTROEM)
--------------------------------
 H      0   0   0     0.000000000000     0.00000000     0.00000000
 H      1   0   0     0.400000000000     0.00000000     0.00000000

---------------------------
INTERNAL COORDINATES (A.U.)
---------------------------
 H      0   0   0     0.000000000000     0.00000000     0.00000000
 H      1   0   0     0.755890453569     0.00000000     0.00000000

---------------------
BASIS SET INFORMATION
---------------------
There are 1 groups of distinct atoms

 Group   1 Type H   : 6s2p1d contracted to 4s2p1d pattern {3111/11/1}

Atom   0H    basis set group =>   1
Atom   1H    basis set group =>   1
------------------------------------------------------------------------------
                           ORCA GTO INTEGRAL CALCULATION
------------------------------------------------------------------------------

                         BASIS SET STATISTICS AND STARTUP INFO

 # of primitive gaussian shells          ...   18
 # of primitive gaussian functions       ...   34
 # of contracted shells                  ...   14
 # of contracted basis functions         ...   30
 Highest angular momentum                ...    2
 Maximum contraction depth               ...    3
 Integral package used                   ... LIBINT
 Integral threshhold            Thresh   ...  1.000e-10
 Primitive cut-off              TCut     ...  1.000e-11


------------------------------ INTEGRAL EVALUATION ----------------------------


 * One electron integrals 
 Pre-screening matrix                    ... done
 Shell pair data                         ... done (   0.000 sec)

-------------------------------------------------------------------------------
                                 ORCA SCF
-------------------------------------------------------------------------------

------------
SCF SETTINGS
------------
Hamiltonian:
 Ab initio Hamiltonian  Method          .... Hartree-Fock(GTOs)


General Settings:
 Integral files         IntName         .... orca
 Hartree-Fock type      HFTyp           .... RHF
 Total Charge           Charge          ....    0
 Multiplicity           Mult            ....    1
 Number of Electrons    NEL             ....    2
 Basis Dimension        Dim             ....   30
 Nuclear Repulsion      ENuc            ....      1.3229430208 Eh

Convergence Acceleration:
 DIIS                   CNVDIIS         .... on
   Start iteration      DIISMaxIt       ....    12
   Startup error        DIISStart       ....  0.200000
   # of expansion vecs  DIISMaxEq       ....     5
   Bias factor          DIISBfac        ....   1.050
   Max. coefficient     DIISMaxC        ....  10.000
 Newton-Raphson         CNVNR           .... off
 SOSCF                  CNVSOSCF        .... on
   Start iteration      SOSCFMaxIt      ....   150
   Startup grad/error   SOSCFStart      ....  0.003300
 Level Shifting         CNVShift        .... on
   Level shift para.    LevelShift      ....    0.2500
   Turn off err/grad.   ShiftErr        ....    0.0010
 Zerner damping         CNVZerner       .... off
 Static damping         CNVDamp         .... on
   Fraction old density DampFac         ....    0.7000
   Max. Damping (<1)    DampMax         ....    0.9800
   Min. Damping (>=0)   DampMin         ....    0.0000
   Turn off err/grad.   DampErr         ....    0.1000
 Fernandez-Rico         CNVRico         .... off

SCF Procedure:
 Maximum # iterations   MaxIter         ....   125
 SCF integral mode      SCFMode         .... Direct
   Integral package                     .... LIBINT
 Reset frequency        DirectResetFreq ....    20
 Integral Threshold     Thresh          ....  1.000e-10 Eh
 Primitive CutOff       TCut            ....  1.000e-11 Eh

Convergence Tolerance:
 Convergence Check Mode ConvCheckMode   .... Total+1el-Energy
 Convergence forced     ConvForced      .... 1
 Energy Change          TolE            ....  1.000e-06 Eh
 1-El. energy change                    ....  1.000e-03 Eh
 Orbital Gradient       TolG            ....  5.000e-05
 Orbital Rotation angle TolX            ....  5.000e-05
 DIIS Error             TolErr          ....  1.000e-06


Diagonalization of the overlap matrix:
Smallest eigenvalue                        ... 1.175e-04
Time for diagonalization                   ...    0.100 sec
Threshold for overlap eigenvalues          ... 1.000e-08
Number of eigenvalues below threshold      ... 0
Time for construction of square roots      ...    0.000 sec
Total time needed                          ...    0.100 sec

-------------------
DFT GRID GENERATION
-------------------

General Integration Accuracy     IntAcc      ...  4.340
Radial Grid Type                 RadialGrid  ... Gauss-Chebyshev
Angular Grid (max. acc.)         AngularGrid ... Lebedev-110
Angular grid pruning method      GridPruning ... 3 (G Style)
Weight generation scheme         WeightScheme... Becke
Basis function cutoff            BFCut       ...    1.0000e-10
Integration weight cutoff        WCut        ...    1.0000e-14
Grids for H and He will be reduced by one unit

# of grid points (after initial pruning)     ...   1588 (   0.0 sec)
# of grid points (after weights+screening)   ...   1558 (   0.0 sec)
nearest neighbour list constructed           ...    0.0 sec
Grid point re-assignment to atoms done       ...    0.0 sec
Grid point division into batches done        ...    0.0 sec
Reduced shell lists constructed in    0.0 sec

Total number of grid points                  ...     1558
Total number of batches                      ...       26
Average number of points per batch           ...       59
Average number of grid points per atom       ...      779
Average number of shells per batch           ...    13.48 (96.30%)
Average number of basis functions per batch  ...    28.89 (96.30%)
Average number of large shells per batch     ...    13.33 (98.90%)
Average number of large basis fcns per batch ...    28.59 (98.97%)
Maximum spatial batch extension              ...  15.26, 21.59, 21.59 au
Average spatial batch extension              ...   4.39,  8.19,  8.26 au

Time for grid setup =    0.009 sec

------------------------------
INITIAL GUESS: MODEL POTENTIAL
------------------------------
Loading Hartree-Fock densities                     ... done
Calculating cut-offs                               ... done
Setting up the integral package                    ... done
Initializing the effective Hamiltonian             ... done
Starting the Coulomb interaction                   ... done (   0.0 sec)
Reading the grid                                   ... done
Mapping shells                                     ... done
Starting the XC term evaluation                    ... done (   0.0 sec)
Transforming the Hamiltonian                       ... done (   0.0 sec)
Diagonalizing the Hamiltonian                      ... done (   0.0 sec)
Back transforming the eigenvectors                 ... done (   0.0 sec)
Now organizing SCF variables                       ... done
                      ------------------
                      INITIAL GUESS DONE (   0.1 sec)
                      ------------------
--------------
SCF ITERATIONS
--------------
ITER       Energy         Delta-E        Max-DP      RMS-DP      [F,P]     Damp
               ***  Starting incremental Fock matrix formation  ***
  0     -0.9293320943   0.000000000000 0.00714176  0.00052095  0.1216613 0.7000
  1     -0.9321123621  -0.002780267857 0.00586956  0.00043779  0.0944004 0.7000
                               ***Turning on DIIS***
  2     -0.9342401980  -0.002127835839 0.01450933  0.00110225  0.0707081 0.0000
  3     -0.9416482745  -0.007408076489 0.00150751  0.00017706  0.0101599 0.0000
                      *** Initiating the SOSCF procedure ***
                           *** Shutting down DIIS ***
                      *** Re-Reading the Fockian *** 
                      *** Removing any level shift *** 
ITER      Energy       Delta-E        Grad      Rot      Max-DP    RMS-DP
  4     -0.94021574   0.0014325312  0.001330  0.001330  0.000610  0.000059
               *** Restarting incremental Fock matrix formation ***
  5     -0.93978725   0.0004284920  0.000277  0.000331  0.000217  0.000018
                 **** Energy Check signals convergence ****
              ***Rediagonalizing the Fockian in SOSCF/NRSCF***

               *****************************************************
               *                     SUCCESS                       *
               *           SCF CONVERGED AFTER   6 CYCLES          *
               *****************************************************


----------------
TOTAL SCF ENERGY
----------------

Total Energy       :           -0.93978764 Eh             -25.57292 eV

Components:
Nuclear Repulsion  :            1.32294302 Eh              35.99911 eV
Electronic Energy  :           -2.26273066 Eh             -61.57203 eV
One Electron Energy:           -3.07325399 Eh             -83.62749 eV
Two Electron Energy:            0.81052333 Eh              22.05546 eV

Virial components:
Potential Energy   :           -2.58472344 Eh             -70.33390 eV
Kinetic Energy     :            1.64493580 Eh              44.76098 eV
Virial Ratio       :            1.57132177


---------------
SCF CONVERGENCE
---------------

  Last Energy change         ...   -3.8853e-07  Tolerance :   1.0000e-06
  Last MAX-Density change    ...    7.0381e-05  Tolerance :   1.0000e-05
  Last RMS-Density change    ...    5.4958e-06  Tolerance :   1.0000e-06
  Last Orbital Gradient      ...    6.4360e-05  Tolerance :   5.0000e-05
  Last Orbital Rotation      ...    1.0633e-04  Tolerance :   5.0000e-05

             **** THE GBW FILE WAS UPDATED (orca.gbw) ****
             **** DENSITY FILE WAS UPDATED (orca.scfp) ****
             **** ENERGY FILE WAS UPDATED (orca.en.tmp) ****
             **** THE GBW FILE WAS UPDATED (orca.gbw) ****
             **** DENSITY FILE WAS UPDATED (orca.scfp) ****
----------------
ORBITAL ENERGIES
----------------

  NO   OCC          E(Eh)            E(eV) 
   0   2.0000      -0.726075       -19.7575 
   1   0.0000       0.068070         1.8523 
   2   0.0000       0.076473         2.0809 
   3   0.0000       0.281673         7.6647 
   4   0.0000       0.417039        11.3482 
   5   0.0000       0.721566        19.6348 
   6   0.0000       0.721566        19.6348 
   7   0.0000       0.793112        21.5817 
   8   0.0000       1.096818        29.8459 
   9   0.0000       1.096818        29.8459 
  10   0.0000       1.136739        30.9322 
  11   0.0000       1.698328        46.2139 
  12   0.0000       2.224625        60.5351 
  13   0.0000       3.137631        85.3793 
  14   0.0000       3.137631        85.3793 
  15   0.0000       3.410667        92.8090 
  16   0.0000       3.428742        93.3008 
  17   0.0000       3.428742        93.3008 
  18   0.0000       3.641586        99.0926 
  19   0.0000       3.651181        99.3537 
  20   0.0000       3.651181        99.3537 
  21   0.0000       4.201858       114.3384 
  22   0.0000       4.201858       114.3384 
  23   0.0000       4.269149       116.1695 
  24   0.0000       4.269149       116.1695 
  25   0.0000       4.977739       135.4512 
  26   0.0000       7.108145       193.4225 
  27   0.0000       7.605530       206.9570 
  28   0.0000       7.605530       206.9570 
  29   0.0000      12.640250       343.9587 

                    ********************************
                    * MULLIKEN POPULATION ANALYSIS *
                    ********************************

-----------------------
MULLIKEN ATOMIC CHARGES
-----------------------
   0 H :    0.000000
   1 H :   -0.000000
Sum of atomic charges:    0.0000000

--------------------------------
MULLIKEN REDUCED ORBITAL CHARGES
--------------------------------
  0 H s       :     0.992912  s :     0.992912
      pz      :     0.000000  p :     0.007086
      px      :     0.007086
      py      :     0.000000
      dz2     :     0.000001  d :     0.000002
      dxz     :    -0.000000
      dyz     :     0.000000
      dx2y2   :     0.000002
      dxy     :    -0.000000
  1 H s       :     0.992912  s :     0.992912
      pz      :     0.000000  p :     0.007086
      px      :     0.007086
      py      :     0.000000
      dz2     :     0.000001  d :     0.000002
      dxz     :    -0.000000
      dyz     :    -0.000000
      dx2y2   :     0.000002
      dxy     :    -0.000000


                     *******************************
                     * LOEWDIN POPULATION ANALYSIS *
                     *******************************

----------------------
LOEWDIN ATOMIC CHARGES
----------------------
   0 H :    0.000000
   1 H :    0.000000

-------------------------------
LOEWDIN REDUCED ORBITAL CHARGES
-------------------------------
  0 H s       :     0.956332  s :     0.956332
      pz      :     0.000000  p :     0.039678
      px      :     0.039678
      py      :     0.000000
      dz2     :     0.000997  d :     0.003990
      dxz     :     0.000000
      dyz     :     0.000000
      dx2y2   :     0.002992
      dxy     :     0.000000
  1 H s       :     0.956332  s :     0.956332
      pz      :     0.000000  p :     0.039678
      px      :     0.039678
      py      :     0.000000
      dz2     :     0.000997  d :     0.003990
      dxz     :     0.000000
      dyz     :     0.000000
      dx2y2   :     0.002992
      dxy     :     0.000000


                      *****************************
                      * MAYER POPULATION ANALYSIS *
                      *****************************

  NA   - Mulliken gross atomic population
  ZA   - Total nuclear charge
  QA   - Mulliken gross atomic charge
  VA   - Mayer's total valence
  BVA  - Mayer's bonded valence
  FA   - Mayer's free valence

  ATOM       NA         ZA         QA         VA         BVA        FA
  0 H      1.0000     1.0000     0.0000     1.0000     1.0000     0.0000
  1 H      1.0000     1.0000    -0.0000     1.0000     1.0000     0.0000

  Mayer bond orders larger than 0.100000
B(  0-H ,  1-H ) :   1.0000 

-------
TIMINGS
-------

Total SCF time: 0 days 0 hours 0 min 0 sec 

Total time                  ....       0.959 sec
Sum of individual times     ....       0.680 sec  ( 70.9%)

Fock matrix formation       ....       0.531 sec  ( 55.4%)
Diagonalization             ....       0.001 sec  (  0.1%)
Density matrix formation    ....       0.000 sec  (  0.0%)
Population analysis         ....       0.001 sec  (  0.2%)
Initial guess               ....       0.137 sec  ( 14.3%)
Orbital Transformation      ....       0.000 sec  (  0.0%)
Orbital Orthonormalization  ....       0.000 sec  (  0.0%)
DIIS solution               ....       0.000 sec  (  0.1%)
SOSCF solution              ....       0.000 sec  (  0.0%)


------------------------------------------------------------------------------- 
                              ORCA-MATRIX DRIVEN CI                            
------------------------------------------------------------------------------- 

--------------------------------
AUTOMATIC CHOICE OF INCORE LEVEL
--------------------------------

Memory available                           ...    256.00 MB
Memory needed for S+T                      ...      0.01 MB
Memory needed for J+K                      ...      0.04 MB
Memory needed for DIIS                     ...      0.18 MB
Memory needed for 3-ext                    ...      0.19 MB
Memory needed for 4-ext                    ...      2.79 MB
Memory needed for triples                  ...      0.93 MB
 -> Final InCoreLevel    ... 5
 -> check shows that triples correction can be computed


Wavefunction type
-----------------
Correlation treatment                      ...     QCISD     
Single excitations                         ... ON
Orbital optimization                       ... OFF
Calculation of Z vector                    ... OFF
Calculation of Brueckner orbitals          ... OFF
Perturbative triple excitations            ... ON
Calculation of F12 correction              ... OFF
Frozen core treatment                      ... chemical core (0 el)
Reference Wavefunction                     ... RHF
  Internal Orbitals:     0 ...    0 (  1 MO's/  2 electrons)
  Virtual  Orbitals:     1 ...   29 ( 29 MO's              )
Number of AO's                             ...     30
Number of electrons                        ...      2
Number of correlated electrons             ...      2

Algorithmic settings
--------------------
Integral transformation                    ... AO direct full transformation
K(C) Formation                             ... FULL-MO TRAFO
Maximum number of iterations               ...        50
Convergence tolerance (max. residuum)      ... 2.500e-05
Level shift for amplitude update           ... 2.000e-01
Maximum number of DIIS vectors             ...         7
DIIS turned on at iteration                ...         0
Damping before turning on DIIS             ...     0.500
Damping after turning on DIIS              ...     0.000
Pair specific amplitude update             ... OFF
Natural orbital iterations                 ... OFF
Perturbative natural orbital generation    ... OFF
Printlevel                                 ... 2

Memory handling:
----------------
Maximum memory for working arrays          ...    256 MB
Data storage in matrix containers          ... UNCOMPRESSED
Data type for integral storage             ... DOUBLE
In-Core Storage of quantities:
   Amplitudes+Sigma Vector      ... YES
   J+K operators                ... YES
   DIIS vectors                 ... YES
   3-external integrals         ... YES
   4-external integrals         ... YES


Initializing the integral package          ... done
Warning: reference  - re-canonicalizations have been set to INT 1 VIRT 1

--------------------------
CLOSED-SHELL FOCK OPERATOR
--------------------------

<ss|ss>:          666 b            0 skpd (  0.0%)    0.000 s ( 0.000 ms/b)
<ss|sp>:         1152 b            0 skpd (  0.0%)    0.001 s ( 0.000 ms/b)
<ss|sd>:          576 b            0 skpd (  0.0%)    0.000 s ( 0.001 ms/b)
<ss|pp>:          360 b            0 skpd (  0.0%)    0.000 s ( 0.001 ms/b)
<ss|pd>:          288 b            0 skpd (  0.0%)    0.000 s ( 0.001 ms/b)
<ss|dd>:          108 b            0 skpd (  0.0%)    0.000 s ( 0.001 ms/b)
<sp|sp>:          528 b            0 skpd (  0.0%)    0.000 s ( 0.001 ms/b)
<sp|sd>:          512 b            0 skpd (  0.0%)    0.001 s ( 0.001 ms/b)
<sp|pp>:          320 b            0 skpd (  0.0%)    0.000 s ( 0.001 ms/b)
<sp|pd>:          256 b            0 skpd (  0.0%)    0.001 s ( 0.002 ms/b)
<sp|dd>:           96 b            0 skpd (  0.0%)    0.000 s ( 0.003 ms/b)
<sd|sd>:          136 b            0 skpd (  0.0%)    0.000 s ( 0.002 ms/b)
<sd|pp>:          160 b            0 skpd (  0.0%)    0.000 s ( 0.002 ms/b)
<sd|pd>:          128 b            0 skpd (  0.0%)    0.001 s ( 0.004 ms/b)
<sd|dd>:           48 b            0 skpd (  0.0%)    0.000 s ( 0.007 ms/b)
<pp|pp>:           55 b            0 skpd (  0.0%)    0.000 s ( 0.003 ms/b)
<pp|pd>:           80 b            0 skpd (  0.0%)    0.000 s ( 0.005 ms/b)
<pp|dd>:           30 b            0 skpd (  0.0%)    0.000 s ( 0.008 ms/b)
<pd|pd>:           36 b            0 skpd (  0.0%)    0.000 s ( 0.011 ms/b)
<pd|dd>:           24 b            0 skpd (  0.0%)    0.000 s ( 0.018 ms/b)
<dd|dd>:            6 b            1 skpd ( 16.7%)    0.000 s ( 0.033 ms/b)
Recanonicalizing the internal orbitals
Recanonicalizing the virtual orbitals
Time needed for Fock operator              ...            0.072 sec
Reference energy                           ...     -0.939787663

------------------------------
PARTIAL COULOMB TRANSFORMATION
------------------------------

Transformation type                        ... one-operator
Dimension of the basis                     ...   30
Number of internal MOs                     ...   30 (0-29)
Pair cutoff                                ... 0.000e+00 Eh
Number of AO pairs included in the trafo   ...  465
Total Number of distinct AO pairs          ...  465
Memory devoted for trafo                   ...  256.0 MB 
Max. Number of MO pairs treated together   ... 72160      
Max. Number of MOs treated per batch       ... 2405      
Number Format for Storage                  ... Double (8 Byte)
AO-integral source                         ... DIRECT
Integral package used                      ... LIBINT

Starting integral evaluation:
<ss|**>:         3780 b        0 skpd     0.004 s (  0.001 ms/b)
<sp|**>:         3360 b        0 skpd     0.006 s (  0.002 ms/b)
<sd|**>:         1680 b        0 skpd     0.005 s (  0.003 ms/b)
<pp|**>:         1050 b        0 skpd     0.004 s (  0.004 ms/b)
<pd|**>:          840 b        0 skpd     0.005 s (  0.007 ms/b)
<dd|**>:          315 b        0 skpd     0.003 s (  0.010 ms/b)
Closing buffer AOJ ( 0.00 GB; CompressionRatio= 1.00)
Collecting buffer AOJ 
    ... done with AO integral generation
Number of MO pairs included in the trafo   ...  465
    ... Now sorting integrals
IBATCH = 1 of  1
Closing buffer JAO ( 0.00 GB; CompressionRatio= 1.00)
Collecting buffer JAO 
TOTAL TIME for half transformation         ...     0.042 sec
AO-integral generation                     ...     0.015 sec
Half transformation                        ...     0.014 sec
J-integral sorting                         ...     0.012 sec

-------------------------- SECOND HALF TRANSFORMATION -------------------------
Formation of (pq|rs)                       ... ok (     0.012 sec)
Integral sorting                           ... ok (     0.009 sec)

------------------
CLOSED SHELL GUESS
------------------

Initial guess performed in     0.000 sec
E(0)                                       ...     -0.939787663
E(MP2)                                     ...     -0.031058958
Initial E(tot)                             ...     -0.970846621
<T|T>                                      ...      0.007139272
Number of pairs included                   ... 1
Total number of pairs                      ... 1

---------------------------
RHF QUADRATIC CI ITERATIONS
---------------------------

Number of amplitudes to be optimized       ... 870

Iter       E(tot)           E(Corr)          Delta-E          Residual     Time
  0     -0.970846621     -0.031058958      0.000000000      0.016929217    0.00
                           *** Turning on DIIS ***
  1     -0.975314885     -0.035527222     -0.004468264      0.004780333    0.00
  2     -0.976906697     -0.037119034     -0.001591812      0.000615407    0.00
  3     -0.976992235     -0.037204572     -0.000085538      0.000125085    0.00
  4     -0.977000080     -0.037212417     -0.000007845      0.000024656    0.00
               --- The Quadratic CI iterations have converged ---

-------------------
QUADRATIC CI ENERGY
-------------------

E(0)                                       ...     -0.939787663
E(CORR)                                    ...     -0.037212417
E(TOT)                                     ...     -0.977000080
Singles Norm <S|S>**1/2                    ...      0.001733829  
T1 diagnostic                              ...      0.001226003  

------------------
LARGEST AMPLITUDES
------------------
   0->  6   0->  6       0.035393
   0->  5   0->  5       0.035393
   0->  4   0->  4       0.029537
   0->  7   0->  7       0.027009
   0-> 12   0-> 12       0.024392
   0->  4   0-> 12       0.021534
   0-> 12   0->  4       0.021534
   0->  3   0->  7       0.018703
   0->  7   0->  3       0.018703
   0->  7   0-> 11       0.017434
   0-> 11   0->  7       0.017434
   0-> 20   0-> 20       0.014656
   0-> 19   0-> 19       0.014656
   0->  3   0->  3       0.014061
   0-> 11   0-> 11       0.013470
   0->  1   0->  4       0.013435


        !!!!!!!!!!!!!!!!!!!!!!!!!!!!!!!!!!!!!!!!!!!!!!!!!!!!!!!!!!!!!!!!!!!!!!!!!! 
        !  Warning: Densities are linearized densities !                         !
        !!!!!!!!!!!!!!!!!!!!!!!!!!!!!!!!!!!!!!!!!!!!!!!!!!!!!!!!!!!!!!!!!!!!!!!!!! 

Trace of internal density part =     -0.022255234
Trace of external density part =      0.022255234
----------------------
RHF TRIPLES CORRECTION (Algorithm 1)
----------------------

Multiplier for the singles contribution    ...      2.000000000

Triples Correction (T)                     ...      0.000000000
Scaling of triples based on CCSD energies (Peterson et al. Molecular Physics 113, 1551 (2015))
E(T*) = f*E(T) where f = E(F12-CCSD)/E(CCSD) 
f = CCSD (with F12)/ CCSD (without F12)    ...      1.000000000
Scaled triples correction (T)              ...      0.000000000

Final correlation energy                   ...     -0.037212417
E(QCISD)                                   ...     -0.977000080
E(QCISD(T))                                ...     -0.977000080

NORM  =      1.011130623 sqrt=     1.005549911
W(HF) =      0.988991904
------------------------------------------------------------------------------
                           ORCA POPULATION ANALYSIS
------------------------------------------------------------------------------
Input electron density              ... orca.mdcip
BaseName (.gbw .S,...)              ... orca

                    ********************************
                    * MULLIKEN POPULATION ANALYSIS *
                    ********************************

-----------------------
MULLIKEN ATOMIC CHARGES
-----------------------
   0 H :   -0.000000
   1 H :    0.000000
Sum of atomic charges:    0.0000000

--------------------------------
MULLIKEN REDUCED ORBITAL CHARGES
--------------------------------
  0 H s       :     0.985557  s :     0.985557
      pz      :     0.001890  p :     0.014030
      px      :     0.010251
      py      :     0.001890
      dz2     :     0.000079  d :     0.000413
      dxz     :     0.000070
      dyz     :     0.000044
      dx2y2   :     0.000150
      dxy     :     0.000070
  1 H s       :     0.985557  s :     0.985557
      pz      :     0.001890  p :     0.014030
      px      :     0.010251
      py      :     0.001890
      dz2     :     0.000079  d :     0.000413
      dxz     :     0.000070
      dyz     :     0.000044
      dx2y2   :     0.000150
      dxy     :     0.000070


                     *******************************
                     * LOEWDIN POPULATION ANALYSIS *
                     *******************************

----------------------
LOEWDIN ATOMIC CHARGES
----------------------
   0 H :    0.000000
   1 H :    0.000000

-------------------------------
LOEWDIN REDUCED ORBITAL CHARGES
-------------------------------
  0 H s       :     0.948986  s :     0.948986
      pz      :     0.001844  p :     0.046287
      px      :     0.042598
      py      :     0.001844
      dz2     :     0.001135  d :     0.004727
      dxz     :     0.000115
      dyz     :     0.000044
      dx2y2   :     0.003317
      dxy     :     0.000115
  1 H s       :     0.948986  s :     0.948986
      pz      :     0.001844  p :     0.046287
      px      :     0.042598
      py      :     0.001844
      dz2     :     0.001135  d :     0.004727
      dxz     :     0.000115
      dyz     :     0.000044
      dx2y2   :     0.003317
      dxy     :     0.000115


                      *****************************
                      * MAYER POPULATION ANALYSIS *
                      *****************************

  NA   - Mulliken gross atomic population
  ZA   - Total nuclear charge
  QA   - Mulliken gross atomic charge
  VA   - Mayer's total valence
  BVA  - Mayer's bonded valence
  FA   - Mayer's free valence

  ATOM       NA         ZA         QA         VA         BVA        FA
  0 H      1.0000     1.0000    -0.0000     1.0241     0.9799     0.0442
  1 H      1.0000     1.0000     0.0000     1.0241     0.9799     0.0442

  Mayer bond orders larger than 0.100000
B(  0-H ,  1-H ) :   0.9799 



------------------------------------------------------------------------------- 
                                     TIMINGS                                   
------------------------------------------------------------------------------- 


Total execution time                   ...        1.079 sec

Fock Matrix Formation                  ...        0.072 sec (  6.7%)
Initial Guess                          ...        0.000 sec (  0.0%)
DIIS Solver                            ...        0.000 sec (  0.0%)
State Vector Update                    ...        0.000 sec (  0.0%)
Sigma-vector construction              ...        0.012 sec (  1.1%)
  <D|H|D>(4-ext)                       ...        0.009 sec ( 74.4% of sigma)
Total Time for computing (T)           ...        0.000 sec (  0.0% of ALL)


-------------------------   --------------------
FINAL SINGLE POINT ENERGY        -0.977000079564
-------------------------   --------------------

Storing actual gbw-file in orca.001.gbw ... done

                            ***************************************
                            *     ORCA property calculations      *
                            ***************************************

                                    ---------------------
                                    Active property flags
                                    ---------------------
   (+) Dipole Moment


------------------------------------------------------------------------------
                       ORCA ELECTRIC PROPERTIES CALCULATION
------------------------------------------------------------------------------

Dipole Moment Calculation                       ... on
Quadrupole Moment Calculation                   ... off
Polarizability Calculation                      ... off
GBWName                                         ... orca.gbw
Electron density file                           ... orca.scfp
The origin for moment calculation is the CENTER OF MASS  = ( 0.377945,  0.000000  0.000000)

-------------
DIPOLE MOMENT
-------------
                                X             Y             Z
Electronic contribution:      0.00000       0.00000       0.00000
Nuclear contribution   :      0.00000       0.00000       0.00000
                        -----------------------------------------
Total Dipole Moment    :      0.00000       0.00000       0.00000
                        -----------------------------------------
Magnitude (a.u.)       :      0.00000
Magnitude (Debye)      :      0.00000



--------------------
Rotational spectrum 
--------------------
 
Rotational constants in cm-1:     0.000000   209.048176   209.048176 
Rotational constants in MHz :     0.000000 6267106.642963 6267106.642963 

 Dipole components along the rotational axes: 
x,y,z [a.u.] :     0.000000     0.000000     0.000000 
x,y,z [Debye]:     0.000000     0.000000     0.000000 

 

                           *** MDCI DENSITY ***

------------------------------------------------------------------------------
                       ORCA ELECTRIC PROPERTIES CALCULATION
------------------------------------------------------------------------------

Dipole Moment Calculation                       ... on
Quadrupole Moment Calculation                   ... off
Polarizability Calculation                      ... off
GBWName                                         ... orca.gbw
Electron density file                           ... orca.mdcip
The origin for moment calculation is the CENTER OF MASS  = ( 0.377945,  0.000000  0.000000)

-------------
DIPOLE MOMENT
-------------
                                X             Y             Z
Electronic contribution:     -0.00000       0.00000       0.00000
Nuclear contribution   :      0.00000       0.00000       0.00000
                        -----------------------------------------
Total Dipole Moment    :     -0.00000       0.00000       0.00000
                        -----------------------------------------
Magnitude (a.u.)       :      0.00000
Magnitude (Debye)      :      0.00000



--------------------
Rotational spectrum 
--------------------
 
Rotational constants in cm-1:     0.000000   209.048176   209.048176 
Rotational constants in MHz :     0.000000 6267106.642963 6267106.642963 

 Dipole components along the rotational axes: 
x,y,z [a.u.] :    -0.000000     0.000000     0.000000 
x,y,z [Debye]:    -0.000000     0.000000     0.000000 

 

         *************************************************************
                                TRAJECTORY STEP   2
                  R  :   0.45000000
         *************************************************************
---------------------------------
CARTESIAN COORDINATES (ANGSTROEM)
---------------------------------
  H      0.000000    0.000000    0.000000
  H      0.450000    0.000000    0.000000

----------------------------
CARTESIAN COORDINATES (A.U.)
----------------------------
  NO LB      ZA    FRAG     MASS         X           Y           Z
   0 H     1.0000    0     1.008    0.000000    0.000000    0.000000
   1 H     1.0000    0     1.008    0.850377    0.000000    0.000000

--------------------------------
INTERNAL COORDINATES (ANGSTROEM)
--------------------------------
 H      0   0   0     0.000000000000     0.00000000     0.00000000
 H      1   0   0     0.450000000000     0.00000000     0.00000000

---------------------------
INTERNAL COORDINATES (A.U.)
---------------------------
 H      0   0   0     0.000000000000     0.00000000     0.00000000
 H      1   0   0     0.850376760265     0.00000000     0.00000000


Diagonalization of the overlap matrix:
Smallest eigenvalue                        ... 1.589e-04
Time for diagonalization                   ...    0.000 sec
Threshold for overlap eigenvalues          ... 1.000e-08
Number of eigenvalues below threshold      ... 0
Time for construction of square roots      ...    0.000 sec
Total time needed                          ...    0.001 sec

--------------
SCF ITERATIONS
--------------
ITER       Energy         Delta-E        Max-DP      RMS-DP      [F,P]     Damp
               ***  Starting incremental Fock matrix formation  ***
  0     -1.0131333046   0.000000000000 0.00263088  0.00018933  0.0374031 0.7000
                      *** Initiating the SOSCF procedure ***
                      *** Re-Reading the Fockian *** 
                      *** Removing any level shift *** 
ITER      Energy       Delta-E        Grad      Rot      Max-DP    RMS-DP
  1     -1.01341411  -0.0002808088  0.003098  0.003098  0.007185  0.000516
               *** Restarting incremental Fock matrix formation ***
  2     -1.01416565  -0.0007515325  0.002279  0.001653  0.000874  0.000093
  3     -1.01417915  -0.0000135044  0.000323  0.000349  0.000236  0.000025
                 **** Energy Check signals convergence ****
              ***Rediagonalizing the Fockian in SOSCF/NRSCF***

               *****************************************************
               *                     SUCCESS                       *
               *           SCF CONVERGED AFTER   4 CYCLES          *
               *****************************************************

Total Energy       :           -1.01417954 Eh             -27.59723 eV
  Last Energy change         ...   -3.9414e-07  Tolerance :   1.0000e-06
  Last MAX-Density change    ...    3.1384e-05  Tolerance :   1.0000e-05
             **** THE GBW FILE WAS UPDATED (orca.gbw) ****
             **** DENSITY FILE WAS UPDATED (orca.scfp) ****
             **** ENERGY FILE WAS UPDATED (orca.en.tmp) ****
             **** THE GBW FILE WAS UPDATED (orca.gbw) ****
             **** DENSITY FILE WAS UPDATED (orca.scfp) ****
Total SCF time: 0 days 0 hours 0 min 0 sec 


------------------------------------------------------------------------------- 
                              ORCA-MATRIX DRIVEN CI                            
------------------------------------------------------------------------------- 

--------------------------------
AUTOMATIC CHOICE OF INCORE LEVEL
--------------------------------

Memory available                           ...    256.00 MB
Memory needed for S+T                      ...      0.01 MB
Memory needed for J+K                      ...      0.04 MB
Memory needed for DIIS                     ...      0.18 MB
Memory needed for 3-ext                    ...      0.19 MB
Memory needed for 4-ext                    ...      2.79 MB
Memory needed for triples                  ...      0.93 MB
 -> Final InCoreLevel    ... 5
 -> check shows that triples correction can be computed


Wavefunction type
-----------------
Correlation treatment                      ...     QCISD     
Single excitations                         ... ON
Orbital optimization                       ... OFF
Calculation of Z vector                    ... OFF
Calculation of Brueckner orbitals          ... OFF
Perturbative triple excitations            ... ON
Calculation of F12 correction              ... OFF
Frozen core treatment                      ... chemical core (0 el)
Reference Wavefunction                     ... RHF
  Internal Orbitals:     0 ...    0 (  1 MO's/  2 electrons)
  Virtual  Orbitals:     1 ...   29 ( 29 MO's              )
Number of AO's                             ...     30
Number of electrons                        ...      2
Number of correlated electrons             ...      2

Algorithmic settings
--------------------
Integral transformation                    ... AO direct full transformation
K(C) Formation                             ... FULL-MO TRAFO
Maximum number of iterations               ...        50
Convergence tolerance (max. residuum)      ... 2.500e-05
Level shift for amplitude update           ... 2.000e-01
Maximum number of DIIS vectors             ...         7
DIIS turned on at iteration                ...         0
Damping before turning on DIIS             ...     0.500
Damping after turning on DIIS              ...     0.000
Pair specific amplitude update             ... OFF
Natural orbital iterations                 ... OFF
Perturbative natural orbital generation    ... OFF
Printlevel                                 ... 2

Memory handling:
----------------
Maximum memory for working arrays          ...    256 MB
Data storage in matrix containers          ... UNCOMPRESSED
Data type for integral storage             ... DOUBLE
In-Core Storage of quantities:
   Amplitudes+Sigma Vector      ... YES
   J+K operators                ... YES
   DIIS vectors                 ... YES
   3-external integrals         ... YES
   4-external integrals         ... YES


Initializing the integral package          ... done
Warning: reference  - re-canonicalizations have been set to INT 1 VIRT 1

--------------------------
CLOSED-SHELL FOCK OPERATOR
--------------------------

<ss|ss>:          666 b            0 skpd (  0.0%)    0.000 s ( 0.000 ms/b)
<ss|sp>:         1152 b            0 skpd (  0.0%)    0.000 s ( 0.000 ms/b)
<ss|sd>:          576 b            0 skpd (  0.0%)    0.000 s ( 0.001 ms/b)
<ss|pp>:          360 b            0 skpd (  0.0%)    0.000 s ( 0.000 ms/b)
<ss|pd>:          288 b            0 skpd (  0.0%)    0.000 s ( 0.001 ms/b)
<ss|dd>:          108 b            0 skpd (  0.0%)    0.000 s ( 0.001 ms/b)
<sp|sp>:          528 b            0 skpd (  0.0%)    0.000 s ( 0.000 ms/b)
<sp|sd>:          512 b            0 skpd (  0.0%)    0.000 s ( 0.001 ms/b)
<sp|pp>:          320 b            0 skpd (  0.0%)    0.000 s ( 0.001 ms/b)
<sp|pd>:          256 b            0 skpd (  0.0%)    0.000 s ( 0.002 ms/b)
<sp|dd>:           96 b            0 skpd (  0.0%)    0.000 s ( 0.002 ms/b)
<sd|sd>:          136 b            0 skpd (  0.0%)    0.000 s ( 0.001 ms/b)
<sd|pp>:          160 b            0 skpd (  0.0%)    0.000 s ( 0.002 ms/b)
<sd|pd>:          128 b            0 skpd (  0.0%)    0.000 s ( 0.003 ms/b)
<sd|dd>:           48 b            0 skpd (  0.0%)    0.000 s ( 0.006 ms/b)
<pp|pp>:           55 b            0 skpd (  0.0%)    0.000 s ( 0.002 ms/b)
<pp|pd>:           80 b            0 skpd (  0.0%)    0.000 s ( 0.004 ms/b)
<pp|dd>:           30 b            0 skpd (  0.0%)    0.000 s ( 0.006 ms/b)
<pd|pd>:           36 b            0 skpd (  0.0%)    0.000 s ( 0.008 ms/b)
<pd|dd>:           24 b            0 skpd (  0.0%)    0.000 s ( 0.013 ms/b)
<dd|dd>:            6 b            0 skpd (  0.0%)    0.000 s ( 0.025 ms/b)
Recanonicalizing the internal orbitals
Recanonicalizing the virtual orbitals
Time needed for Fock operator              ...            0.006 sec
Reference energy                           ...     -1.014179547

------------------------------
PARTIAL COULOMB TRANSFORMATION
------------------------------

Transformation type                        ... one-operator
Dimension of the basis                     ...   30
Number of internal MOs                     ...   30 (0-29)
Pair cutoff                                ... 0.000e+00 Eh
Number of AO pairs included in the trafo   ...  465
Total Number of distinct AO pairs          ...  465
Memory devoted for trafo                   ...  256.0 MB 
Max. Number of MO pairs treated together   ... 72160      
Max. Number of MOs treated per batch       ... 2405      
Number Format for Storage                  ... Double (8 Byte)
AO-integral source                         ... DIRECT
Integral package used                      ... LIBINT

Starting integral evaluation:
<ss|**>:         3780 b        0 skpd     0.002 s (  0.000 ms/b)
<sp|**>:         3360 b        0 skpd     0.003 s (  0.001 ms/b)
<sd|**>:         1680 b        0 skpd     0.002 s (  0.001 ms/b)
<pp|**>:         1050 b        0 skpd     0.002 s (  0.002 ms/b)
<pd|**>:          840 b        0 skpd     0.003 s (  0.003 ms/b)
<dd|**>:          315 b        0 skpd     0.001 s (  0.005 ms/b)
Closing buffer AOJ ( 0.00 GB; CompressionRatio= 1.00)
Collecting buffer AOJ 
    ... done with AO integral generation
Number of MO pairs included in the trafo   ...  465
    ... Now sorting integrals
IBATCH = 1 of  1
Closing buffer JAO ( 0.00 GB; CompressionRatio= 1.00)
Collecting buffer JAO 
TOTAL TIME for half transformation         ...     0.018 sec
AO-integral generation                     ...     0.006 sec
Half transformation                        ...     0.006 sec
J-integral sorting                         ...     0.005 sec

-------------------------- SECOND HALF TRANSFORMATION -------------------------
Formation of (pq|rs)                       ... ok (     0.006 sec)
Integral sorting                           ... ok (     0.004 sec)

------------------
CLOSED SHELL GUESS
------------------

Initial guess performed in     0.000 sec
E(0)                                       ...     -1.014179547
E(MP2)                                     ...     -0.031086295
Initial E(tot)                             ...     -1.045265842
<T|T>                                      ...      0.007481722
Number of pairs included                   ... 1
Total number of pairs                      ... 1

---------------------------
RHF QUADRATIC CI ITERATIONS
---------------------------

Number of amplitudes to be optimized       ... 870

Iter       E(tot)           E(Corr)          Delta-E          Residual     Time
  0     -1.045265842     -0.031086295      0.000000000      0.016081059    0.00
                           *** Turning on DIIS ***
  1     -1.049754789     -0.035575241     -0.004488947      0.005643267    0.00
  2     -1.051426059     -0.037246512     -0.001671270      0.000763316    0.00
  3     -1.051521038     -0.037341491     -0.000094979      0.000158855    0.00
  4     -1.051529948     -0.037350401     -0.000008910      0.000025198    0.00
  5     -1.051530757     -0.037351210     -0.000000809      0.000004478    0.00
               --- The Quadratic CI iterations have converged ---

-------------------
QUADRATIC CI ENERGY
-------------------

E(0)                                       ...     -1.014179547
E(CORR)                                    ...     -0.037351210
E(TOT)                                     ...     -1.051530757
Singles Norm <S|S>**1/2                    ...      0.002350926  
T1 diagnostic                              ...      0.001662356  

------------------
LARGEST AMPLITUDES
------------------
   0->  6   0->  6       0.036883
   0->  5   0->  5       0.036883
   0->  7   0->  7       0.030749
   0->  4   0->  4       0.030262
   0-> 12   0-> 12       0.022902
   0->  3   0->  7       0.021852
   0->  7   0->  3       0.021852
   0->  4   0-> 12       0.020739
   0-> 12   0->  4       0.020739
   0->  3   0->  3       0.017004
   0->  7   0-> 11       0.016118
   0-> 11   0->  7       0.016118
   0-> 19   0->  5       0.014097
   0->  5   0-> 19       0.014097
   0->  6   0-> 18       0.014097
   0-> 18   0->  6       0.014097


        !!!!!!!!!!!!!!!!!!!!!!!!!!!!!!!!!!!!!!!!!!!!!!!!!!!!!!!!!!!!!!!!!!!!!!!!!! 
        !  Warning: Densities are linearized densities !                         !
        !!!!!!!!!!!!!!!!!!!!!!!!!!!!!!!!!!!!!!!!!!!!!!!!!!!!!!!!!!!!!!!!!!!!!!!!!! 

Trace of internal density part =     -0.023618734
Trace of external density part =      0.023618734
----------------------
RHF TRIPLES CORRECTION (Algorithm 1)
----------------------

Multiplier for the singles contribution    ...      2.000000000

Triples Correction (T)                     ...      0.000000000
Scaling of triples based on CCSD energies (Peterson et al. Molecular Physics 113, 1551 (2015))
E(T*) = f*E(T) where f = E(F12-CCSD)/E(CCSD) 
f = CCSD (with F12)/ CCSD (without F12)    ...      1.000000000
Scaled triples correction (T)              ...      0.000000000

Final correlation energy                   ...     -0.037351210
E(QCISD)                                   ...     -1.051530757
E(QCISD(T))                                ...     -1.051530757

NORM  =      1.011814894 sqrt=     1.005890100
W(HF) =      0.988323068
------------------------------------------------------------------------------
                           ORCA POPULATION ANALYSIS
------------------------------------------------------------------------------
Input electron density              ... orca.mdcip
BaseName (.gbw .S,...)              ... orca


------------------------------------------------------------------------------- 
                                     TIMINGS                                   
------------------------------------------------------------------------------- 


Total execution time                   ...        0.134 sec

Fock Matrix Formation                  ...        0.006 sec (  4.6%)
Initial Guess                          ...        0.000 sec (  0.0%)
DIIS Solver                            ...        0.000 sec (  0.2%)
State Vector Update                    ...        0.000 sec (  0.0%)
Sigma-vector construction              ...        0.008 sec (  5.8%)
  <D|H|D>(4-ext)                       ...        0.006 sec ( 73.9% of sigma)
Total Time for computing (T)           ...        0.000 sec (  0.0% of ALL)


-------------------------   --------------------
FINAL SINGLE POINT ENERGY        -1.051530757307
-------------------------   --------------------

Storing actual gbw-file in orca.002.gbw ... done

                            ***************************************
                            *     ORCA property calculations      *
                            ***************************************

                                    ---------------------
                                    Active property flags
                                    ---------------------
   (+) Dipole Moment


------------------------------------------------------------------------------
                       ORCA ELECTRIC PROPERTIES CALCULATION
------------------------------------------------------------------------------

Dipole Moment Calculation                       ... on
Quadrupole Moment Calculation                   ... off
Polarizability Calculation                      ... off
GBWName                                         ... orca.gbw
Electron density file                           ... orca.scfp
The origin for moment calculation is the CENTER OF MASS  = ( 0.425188,  0.000000  0.000000)

-------------
DIPOLE MOMENT
-------------
                                X             Y             Z
Electronic contribution:     -0.00000       0.00000       0.00000
Nuclear contribution   :      0.00000       0.00000       0.00000
                        -----------------------------------------
Total Dipole Moment    :     -0.00000       0.00000       0.00000
                        -----------------------------------------
Magnitude (a.u.)       :      0.00000
Magnitude (Debye)      :      0.00000



--------------------
Rotational spectrum 
--------------------
 
Rotational constants in cm-1:     0.000000   165.173867   165.173867 
Rotational constants in MHz :     0.000000 4951787.964811 4951787.964811 

 Dipole components along the rotational axes: 
x,y,z [a.u.] :    -0.000000     0.000000     0.000000 
x,y,z [Debye]:    -0.000000     0.000000     0.000000 

 

                           *** MDCI DENSITY ***

------------------------------------------------------------------------------
                       ORCA ELECTRIC PROPERTIES CALCULATION
------------------------------------------------------------------------------

Dipole Moment Calculation                       ... on
Quadrupole Moment Calculation                   ... off
Polarizability Calculation                      ... off
GBWName                                         ... orca.gbw
Electron density file                           ... orca.mdcip
The origin for moment calculation is the CENTER OF MASS  = ( 0.425188,  0.000000  0.000000)

-------------
DIPOLE MOMENT
-------------
                                X             Y             Z
Electronic contribution:      0.00000      -0.00000       0.00000
Nuclear contribution   :      0.00000       0.00000       0.00000
                        -----------------------------------------
Total Dipole Moment    :      0.00000      -0.00000       0.00000
                        -----------------------------------------
Magnitude (a.u.)       :      0.00000
Magnitude (Debye)      :      0.00000



--------------------
Rotational spectrum 
--------------------
 
Rotational constants in cm-1:     0.000000   165.173867   165.173867 
Rotational constants in MHz :     0.000000 4951787.964811 4951787.964811 

 Dipole components along the rotational axes: 
x,y,z [a.u.] :     0.000000    -0.000000     0.000000 
x,y,z [Debye]:     0.000000    -0.000000     0.000000 

 

         *************************************************************
                                TRAJECTORY STEP   3
                  R  :   0.50000000
         *************************************************************
---------------------------------
CARTESIAN COORDINATES (ANGSTROEM)
---------------------------------
  H      0.000000    0.000000    0.000000
  H      0.500000    0.000000    0.000000

----------------------------
CARTESIAN COORDINATES (A.U.)
----------------------------
  NO LB      ZA    FRAG     MASS         X           Y           Z
   0 H     1.0000    0     1.008    0.000000    0.000000    0.000000
   1 H     1.0000    0     1.008    0.944863    0.000000    0.000000

--------------------------------
INTERNAL COORDINATES (ANGSTROEM)
--------------------------------
 H      0   0   0     0.000000000000     0.00000000     0.00000000
 H      1   0   0     0.500000000000     0.00000000     0.00000000

---------------------------
INTERNAL COORDINATES (A.U.)
---------------------------
 H      0   0   0     0.000000000000     0.00000000     0.00000000
 H      1   0   0     0.944863066961     0.00000000     0.00000000


Diagonalization of the overlap matrix:
Smallest eigenvalue                        ... 2.294e-04
Time for diagonalization                   ...    0.000 sec
Threshold for overlap eigenvalues          ... 1.000e-08
Number of eigenvalues below threshold      ... 0
Time for construction of square roots      ...    0.000 sec
Total time needed                          ...    0.001 sec

--------------
SCF ITERATIONS
--------------
ITER       Energy         Delta-E        Max-DP      RMS-DP      [F,P]     Damp
               ***  Starting incremental Fock matrix formation  ***
  0     -1.0625508149   0.000000000000 0.00243104  0.00017683  0.0343196 0.7000
                      *** Initiating the SOSCF procedure ***
                      *** Re-Reading the Fockian *** 
                      *** Removing any level shift *** 
ITER      Energy       Delta-E        Grad      Rot      Max-DP    RMS-DP
  1     -1.06278981  -0.0002389933  0.002802  0.002802  0.006598  0.000483
               *** Restarting incremental Fock matrix formation ***
  2     -1.06343370  -0.0006438876  0.002076  0.001659  0.000783  0.000093
  3     -1.06344664  -0.0000129489  0.000327  0.000361  0.000268  0.000026
                 **** Energy Check signals convergence ****
              ***Rediagonalizing the Fockian in SOSCF/NRSCF***

               *****************************************************
               *                     SUCCESS                       *
               *           SCF CONVERGED AFTER   4 CYCLES          *
               *****************************************************

Total Energy       :           -1.06344706 Eh             -28.93787 eV
  Last Energy change         ...   -4.1455e-07  Tolerance :   1.0000e-06
  Last MAX-Density change    ...    3.0843e-05  Tolerance :   1.0000e-05
             **** THE GBW FILE WAS UPDATED (orca.gbw) ****
             **** DENSITY FILE WAS UPDATED (orca.scfp) ****
             **** ENERGY FILE WAS UPDATED (orca.en.tmp) ****
             **** THE GBW FILE WAS UPDATED (orca.gbw) ****
             **** DENSITY FILE WAS UPDATED (orca.scfp) ****
Total SCF time: 0 days 0 hours 0 min 0 sec 


------------------------------------------------------------------------------- 
                              ORCA-MATRIX DRIVEN CI                            
------------------------------------------------------------------------------- 

--------------------------------
AUTOMATIC CHOICE OF INCORE LEVEL
--------------------------------

Memory available                           ...    256.00 MB
Memory needed for S+T                      ...      0.01 MB
Memory needed for J+K                      ...      0.04 MB
Memory needed for DIIS                     ...      0.18 MB
Memory needed for 3-ext                    ...      0.19 MB
Memory needed for 4-ext                    ...      2.79 MB
Memory needed for triples                  ...      0.93 MB
 -> Final InCoreLevel    ... 5
 -> check shows that triples correction can be computed


Wavefunction type
-----------------
Correlation treatment                      ...     QCISD     
Single excitations                         ... ON
Orbital optimization                       ... OFF
Calculation of Z vector                    ... OFF
Calculation of Brueckner orbitals          ... OFF
Perturbative triple excitations            ... ON
Calculation of F12 correction              ... OFF
Frozen core treatment                      ... chemical core (0 el)
Reference Wavefunction                     ... RHF
  Internal Orbitals:     0 ...    0 (  1 MO's/  2 electrons)
  Virtual  Orbitals:     1 ...   29 ( 29 MO's              )
Number of AO's                             ...     30
Number of electrons                        ...      2
Number of correlated electrons             ...      2

Algorithmic settings
--------------------
Integral transformation                    ... AO direct full transformation
K(C) Formation                             ... FULL-MO TRAFO
Maximum number of iterations               ...        50
Convergence tolerance (max. residuum)      ... 2.500e-05
Level shift for amplitude update           ... 2.000e-01
Maximum number of DIIS vectors             ...         7
DIIS turned on at iteration                ...         0
Damping before turning on DIIS             ...     0.500
Damping after turning on DIIS              ...     0.000
Pair specific amplitude update             ... OFF
Natural orbital iterations                 ... OFF
Perturbative natural orbital generation    ... OFF
Printlevel                                 ... 2

Memory handling:
----------------
Maximum memory for working arrays          ...    256 MB
Data storage in matrix containers          ... UNCOMPRESSED
Data type for integral storage             ... DOUBLE
In-Core Storage of quantities:
   Amplitudes+Sigma Vector      ... YES
   J+K operators                ... YES
   DIIS vectors                 ... YES
   3-external integrals         ... YES
   4-external integrals         ... YES


Initializing the integral package          ... done
Warning: reference  - re-canonicalizations have been set to INT 1 VIRT 1

--------------------------
CLOSED-SHELL FOCK OPERATOR
--------------------------

<ss|ss>:          666 b            0 skpd (  0.0%)    0.000 s ( 0.000 ms/b)
<ss|sp>:         1152 b            0 skpd (  0.0%)    0.000 s ( 0.000 ms/b)
<ss|sd>:          576 b            0 skpd (  0.0%)    0.000 s ( 0.001 ms/b)
<ss|pp>:          360 b            0 skpd (  0.0%)    0.000 s ( 0.000 ms/b)
<ss|pd>:          288 b            0 skpd (  0.0%)    0.000 s ( 0.001 ms/b)
<ss|dd>:          108 b            0 skpd (  0.0%)    0.000 s ( 0.001 ms/b)
<sp|sp>:          528 b            0 skpd (  0.0%)    0.000 s ( 0.000 ms/b)
<sp|sd>:          512 b            0 skpd (  0.0%)    0.000 s ( 0.001 ms/b)
<sp|pp>:          320 b            0 skpd (  0.0%)    0.000 s ( 0.001 ms/b)
<sp|pd>:          256 b            0 skpd (  0.0%)    0.000 s ( 0.002 ms/b)
<sp|dd>:           96 b            0 skpd (  0.0%)    0.000 s ( 0.002 ms/b)
<sd|sd>:          136 b            0 skpd (  0.0%)    0.000 s ( 0.001 ms/b)
<sd|pp>:          160 b            0 skpd (  0.0%)    0.000 s ( 0.002 ms/b)
<sd|pd>:          128 b            0 skpd (  0.0%)    0.000 s ( 0.003 ms/b)
<sd|dd>:           48 b            0 skpd (  0.0%)    0.000 s ( 0.005 ms/b)
<pp|pp>:           55 b            0 skpd (  0.0%)    0.000 s ( 0.002 ms/b)
<pp|pd>:           80 b            0 skpd (  0.0%)    0.000 s ( 0.004 ms/b)
<pp|dd>:           30 b            0 skpd (  0.0%)    0.000 s ( 0.006 ms/b)
<pd|pd>:           36 b            0 skpd (  0.0%)    0.000 s ( 0.008 ms/b)
<pd|dd>:           24 b            0 skpd (  0.0%)    0.000 s ( 0.013 ms/b)
<dd|dd>:            6 b            0 skpd (  0.0%)    0.000 s ( 0.033 ms/b)
Recanonicalizing the internal orbitals
Recanonicalizing the virtual orbitals
Time needed for Fock operator              ...            0.006 sec
Reference energy                           ...     -1.063447062

------------------------------
PARTIAL COULOMB TRANSFORMATION
------------------------------

Transformation type                        ... one-operator
Dimension of the basis                     ...   30
Number of internal MOs                     ...   30 (0-29)
Pair cutoff                                ... 0.000e+00 Eh
Number of AO pairs included in the trafo   ...  465
Total Number of distinct AO pairs          ...  465
Memory devoted for trafo                   ...  256.0 MB 
Max. Number of MO pairs treated together   ... 72160      
Max. Number of MOs treated per batch       ... 2405      
Number Format for Storage                  ... Double (8 Byte)
AO-integral source                         ... DIRECT
Integral package used                      ... LIBINT

Starting integral evaluation:
<ss|**>:         3780 b        0 skpd     0.002 s (  0.000 ms/b)
<sp|**>:         3360 b        0 skpd     0.003 s (  0.001 ms/b)
<sd|**>:         1680 b        0 skpd     0.002 s (  0.001 ms/b)
<pp|**>:         1050 b        0 skpd     0.002 s (  0.002 ms/b)
<pd|**>:          840 b        0 skpd     0.002 s (  0.003 ms/b)
<dd|**>:          315 b        0 skpd     0.001 s (  0.004 ms/b)
Closing buffer AOJ ( 0.00 GB; CompressionRatio= 1.00)
Collecting buffer AOJ 
    ... done with AO integral generation
Number of MO pairs included in the trafo   ...  465
    ... Now sorting integrals
IBATCH = 1 of  1
Closing buffer JAO ( 0.00 GB; CompressionRatio= 1.00)
Collecting buffer JAO 
TOTAL TIME for half transformation         ...     0.018 sec
AO-integral generation                     ...     0.006 sec
Half transformation                        ...     0.006 sec
J-integral sorting                         ...     0.006 sec

-------------------------- SECOND HALF TRANSFORMATION -------------------------
Formation of (pq|rs)                       ... ok (     0.006 sec)
Integral sorting                           ... ok (     0.004 sec)

------------------
CLOSED SHELL GUESS
------------------

Initial guess performed in     0.000 sec
E(0)                                       ...     -1.063447062
E(MP2)                                     ...     -0.031122675
Initial E(tot)                             ...     -1.094569737
<T|T>                                      ...      0.007853116
Number of pairs included                   ... 1
Total number of pairs                      ... 1

---------------------------
RHF QUADRATIC CI ITERATIONS
---------------------------

Number of amplitudes to be optimized       ... 870

Iter       E(tot)           E(Corr)          Delta-E          Residual     Time
  0     -1.094569737     -0.031122675      0.000000000      0.017823241    0.00
                           *** Turning on DIIS ***
  1     -1.099091608     -0.035644546     -0.004521871      0.006631530    0.00
  2     -1.100858448     -0.037411386     -0.001766841      0.000923529    0.00
  3     -1.100966432     -0.037519370     -0.000107984      0.000194355    0.00
  4     -1.100977140     -0.037530077     -0.000010708      0.000032061    0.00
  5     -1.100978022     -0.037530960     -0.000000882      0.000004668    0.00
               --- The Quadratic CI iterations have converged ---

-------------------
QUADRATIC CI ENERGY
-------------------

E(0)                                       ...     -1.063447062
E(CORR)                                    ...     -0.037530960
E(TOT)                                     ...     -1.100978022
Singles Norm <S|S>**1/2                    ...      0.003082628  
T1 diagnostic                              ...      0.002179747  

------------------
LARGEST AMPLITUDES
------------------
   0->  5   0->  5       0.038233
   0->  6   0->  6       0.038233
   0->  7   0->  7       0.034766
   0->  4   0->  4       0.030901
   0->  7   0->  3       0.025370
   0->  3   0->  7       0.025370
   0-> 12   0-> 12       0.021391
   0->  3   0->  3       0.020435
   0->  4   0-> 12       0.019867
   0-> 12   0->  4       0.019867
   0->  7   0-> 13       0.016108
   0-> 13   0->  7       0.016108
   0->  1   0->  4       0.014444
   0->  4   0->  1       0.014444
   0-> 13   0-> 13       0.013861
   0->  7   0-> 11       0.013431


        !!!!!!!!!!!!!!!!!!!!!!!!!!!!!!!!!!!!!!!!!!!!!!!!!!!!!!!!!!!!!!!!!!!!!!!!!! 
        !  Warning: Densities are linearized densities !                         !
        !!!!!!!!!!!!!!!!!!!!!!!!!!!!!!!!!!!!!!!!!!!!!!!!!!!!!!!!!!!!!!!!!!!!!!!!!! 

Trace of internal density part =     -0.025166717
Trace of external density part =      0.025166717
----------------------
RHF TRIPLES CORRECTION (Algorithm 1)
----------------------

Multiplier for the singles contribution    ...      2.000000000

Triples Correction (T)                     ...      0.000000000
Scaling of triples based on CCSD energies (Peterson et al. Molecular Physics 113, 1551 (2015))
E(T*) = f*E(T) where f = E(F12-CCSD)/E(CCSD) 
f = CCSD (with F12)/ CCSD (without F12)    ...      1.000000000
Scaled triples correction (T)              ...      0.000000000

Final correlation energy                   ...     -0.037530960
E(QCISD)                                   ...     -1.100978022
E(QCISD(T))                                ...     -1.100978022

NORM  =      1.012592861 sqrt=     1.006276732
W(HF) =      0.987563747
------------------------------------------------------------------------------
                           ORCA POPULATION ANALYSIS
------------------------------------------------------------------------------
Input electron density              ... orca.mdcip
BaseName (.gbw .S,...)              ... orca


------------------------------------------------------------------------------- 
                                     TIMINGS                                   
------------------------------------------------------------------------------- 


Total execution time                   ...        0.138 sec

Fock Matrix Formation                  ...        0.006 sec (  4.4%)
Initial Guess                          ...        0.000 sec (  0.0%)
DIIS Solver                            ...        0.000 sec (  0.2%)
State Vector Update                    ...        0.000 sec (  0.0%)
Sigma-vector construction              ...        0.007 sec (  5.4%)
  <D|H|D>(4-ext)                       ...        0.005 sec ( 72.7% of sigma)
Total Time for computing (T)           ...        0.000 sec (  0.0% of ALL)


-------------------------   --------------------
FINAL SINGLE POINT ENERGY        -1.100978021973
-------------------------   --------------------

Storing actual gbw-file in orca.003.gbw ... done

                            ***************************************
                            *     ORCA property calculations      *
                            ***************************************

                                    ---------------------
                                    Active property flags
                                    ---------------------
   (+) Dipole Moment


------------------------------------------------------------------------------
                       ORCA ELECTRIC PROPERTIES CALCULATION
------------------------------------------------------------------------------

Dipole Moment Calculation                       ... on
Quadrupole Moment Calculation                   ... off
Polarizability Calculation                      ... off
GBWName                                         ... orca.gbw
Electron density file                           ... orca.scfp
The origin for moment calculation is the CENTER OF MASS  = ( 0.472432,  0.000000  0.000000)

-------------
DIPOLE MOMENT
-------------
                                X             Y             Z
Electronic contribution:     -0.00000       0.00000       0.00000
Nuclear contribution   :      0.00000       0.00000       0.00000
                        -----------------------------------------
Total Dipole Moment    :     -0.00000       0.00000       0.00000
                        -----------------------------------------
Magnitude (a.u.)       :      0.00000
Magnitude (Debye)      :      0.00000



--------------------
Rotational spectrum 
--------------------
 
Rotational constants in cm-1:     0.000000   133.790832   133.790832 
Rotational constants in MHz :     0.000000 4010948.251497 4010948.251497 

 Dipole components along the rotational axes: 
x,y,z [a.u.] :    -0.000000     0.000000     0.000000 
x,y,z [Debye]:    -0.000000     0.000000     0.000000 

 

                           *** MDCI DENSITY ***

------------------------------------------------------------------------------
                       ORCA ELECTRIC PROPERTIES CALCULATION
------------------------------------------------------------------------------

Dipole Moment Calculation                       ... on
Quadrupole Moment Calculation                   ... off
Polarizability Calculation                      ... off
GBWName                                         ... orca.gbw
Electron density file                           ... orca.mdcip
The origin for moment calculation is the CENTER OF MASS  = ( 0.472432,  0.000000  0.000000)

-------------
DIPOLE MOMENT
-------------
                                X             Y             Z
Electronic contribution:      0.00000       0.00000      -0.00000
Nuclear contribution   :      0.00000       0.00000       0.00000
                        -----------------------------------------
Total Dipole Moment    :      0.00000       0.00000      -0.00000
                        -----------------------------------------
Magnitude (a.u.)       :      0.00000
Magnitude (Debye)      :      0.00000



--------------------
Rotational spectrum 
--------------------
 
Rotational constants in cm-1:     0.000000   133.790832   133.790832 
Rotational constants in MHz :     0.000000 4010948.251497 4010948.251497 

 Dipole components along the rotational axes: 
x,y,z [a.u.] :     0.000000     0.000000    -0.000000 
x,y,z [Debye]:     0.000000     0.000000    -0.000000 

 

         *************************************************************
                                TRAJECTORY STEP   4
                  R  :   0.55000000
         *************************************************************
---------------------------------
CARTESIAN COORDINATES (ANGSTROEM)
---------------------------------
  H      0.000000    0.000000    0.000000
  H      0.550000    0.000000    0.000000

----------------------------
CARTESIAN COORDINATES (A.U.)
----------------------------
  NO LB      ZA    FRAG     MASS         X           Y           Z
   0 H     1.0000    0     1.008    0.000000    0.000000    0.000000
   1 H     1.0000    0     1.008    1.039349    0.000000    0.000000

--------------------------------
INTERNAL COORDINATES (ANGSTROEM)
--------------------------------
 H      0   0   0     0.000000000000     0.00000000     0.00000000
 H      1   0   0     0.550000000000     0.00000000     0.00000000

---------------------------
INTERNAL COORDINATES (A.U.)
---------------------------
 H      0   0   0     0.000000000000     0.00000000     0.00000000
 H      1   0   0     1.039349373657     0.00000000     0.00000000


Diagonalization of the overlap matrix:
Smallest eigenvalue                        ... 3.414e-04
Time for diagonalization                   ...    0.001 sec
Threshold for overlap eigenvalues          ... 1.000e-08
Number of eigenvalues below threshold      ... 0
Time for construction of square roots      ...    0.000 sec
Total time needed                          ...    0.001 sec

--------------
SCF ITERATIONS
--------------
ITER       Energy         Delta-E        Max-DP      RMS-DP      [F,P]     Damp
               ***  Starting incremental Fock matrix formation  ***
  0     -1.0947273317   0.000000000000 0.00224992  0.00016645  0.0314986 0.7000
                      *** Initiating the SOSCF procedure ***
                      *** Re-Reading the Fockian *** 
                      *** Removing any level shift *** 
ITER      Energy       Delta-E        Grad      Rot      Max-DP    RMS-DP
  1     -1.09493219  -0.0002048549  0.002535  0.002535  0.006076  0.000456
               *** Restarting incremental Fock matrix formation ***
  2     -1.09548762  -0.0005554367  0.001893  0.001651  0.000710  0.000093
  3     -1.09549999  -0.0000123716  0.000327  0.000369  0.000295  0.000027
                 **** Energy Check signals convergence ****
              ***Rediagonalizing the Fockian in SOSCF/NRSCF***

               *****************************************************
               *                     SUCCESS                       *
[...]
------------------------------

Transformation type                        ... one-operator
Dimension of the basis                     ...   30
Number of internal MOs                     ...   30 (0-29)
Pair cutoff                                ... 0.000e+00 Eh
Number of AO pairs included in the trafo   ...  465
Total Number of distinct AO pairs          ...  465
Memory devoted for trafo                   ...  256.0 MB 
Max. Number of MO pairs treated together   ... 72160      
Max. Number of MOs treated per batch       ... 2405      
Number Format for Storage                  ... Double (8 Byte)
AO-integral source                         ... DIRECT
Integral package used                      ... LIBINT

Starting integral evaluation:
<ss|**>:         3780 b        0 skpd     0.002 s (  0.001 ms/b)
<sp|**>:         3360 b        0 skpd     0.003 s (  0.001 ms/b)
<sd|**>:         1680 b        0 skpd     0.003 s (  0.002 ms/b)
<pp|**>:         1050 b        0 skpd     0.002 s (  0.002 ms/b)
<pd|**>:          840 b        0 skpd     0.003 s (  0.004 ms/b)
<dd|**>:          315 b        0 skpd     0.002 s (  0.005 ms/b)
Closing buffer AOJ ( 0.00 GB; CompressionRatio= 1.00)
Collecting buffer AOJ 
    ... done with AO integral generation
Number of MO pairs included in the trafo   ...  465
    ... Now sorting integrals
IBATCH = 1 of  1
Closing buffer JAO ( 0.00 GB; CompressionRatio= 1.00)
Collecting buffer JAO 
TOTAL TIME for half transformation         ...     0.022 sec
AO-integral generation                     ...     0.007 sec
Half transformation                        ...     0.007 sec
J-integral sorting                         ...     0.007 sec

-------------------------- SECOND HALF TRANSFORMATION -------------------------
Formation of (pq|rs)                       ... ok (     0.007 sec)
Integral sorting                           ... ok (     0.005 sec)

------------------
CLOSED SHELL GUESS
------------------

Initial guess performed in     0.000 sec
E(0)                                       ...     -0.925550435
E(MP2)                                     ...     -0.051797253
Initial E(tot)                             ...     -0.977347687
<T|T>                                      ...      0.054826708
Number of pairs included                   ... 1
Total number of pairs                      ... 1

---------------------------
RHF QUADRATIC CI ITERATIONS
---------------------------

Number of amplitudes to be optimized       ... 870

Iter       E(tot)           E(Corr)          Delta-E          Residual     Time
  0     -0.977347687     -0.051797253      0.000000000      0.068580665    0.00
                           *** Turning on DIIS ***
  1     -0.990055523     -0.064505089     -0.012707836      0.051507766    0.00
  2     -1.004617501     -0.079067066     -0.014561978      0.028679501    0.00
  3     -1.019681371     -0.094130936     -0.015063870      0.002521552    0.00
  4     -1.020439393     -0.094888959     -0.000758023      0.000659537    0.00
  5     -1.020542268     -0.094991834     -0.000102875      0.000083329    0.00
  6     -1.020585917     -0.095035483     -0.000043649      0.000019721    0.00
               --- The Quadratic CI iterations have converged ---

-------------------
QUADRATIC CI ENERGY
-------------------

E(0)                                       ...     -0.925550435
E(CORR)                                    ...     -0.095035483
E(TOT)                                     ...     -1.020585917
Singles Norm <S|S>**1/2                    ...      0.087006774  
T1 diagnostic                              ...      0.061523080  

------------------
LARGEST AMPLITUDES
------------------
   0->  1   0->  1       0.450949
   0->  1   0->  3       0.145110
   0->  3   0->  1       0.145110
   0->  1   0->  4       0.091151
   0->  4   0->  1       0.091151
   0->  5  -1-> -1       0.053228
   0->  2  -1-> -1       0.050743
   0->  3   0->  3       0.047277
   0->  6  -1-> -1       0.044968
   0->  4   0->  3       0.030686
   0->  3   0->  4       0.030686
   0->  4   0->  4       0.022382
   0->  7   0->  7       0.020900
   0->  8   0->  8       0.020900
   0->  6   0->  6       0.020106
   0->  1   0-> 11       0.013253


        !!!!!!!!!!!!!!!!!!!!!!!!!!!!!!!!!!!!!!!!!!!!!!!!!!!!!!!!!!!!!!!!!!!!!!!!!! 
        !  Warning: Densities are linearized densities !                         !
        !!!!!!!!!!!!!!!!!!!!!!!!!!!!!!!!!!!!!!!!!!!!!!!!!!!!!!!!!!!!!!!!!!!!!!!!!! 

Trace of internal density part =     -0.554232047
Trace of external density part =      0.554232047
----------------------
RHF TRIPLES CORRECTION (Algorithm 1)
----------------------

Multiplier for the singles contribution    ...      2.000000000

Triples Correction (T)                     ...      0.000000000
Scaling of triples based on CCSD energies (Peterson et al. Molecular Physics 113, 1551 (2015))
E(T*) = f*E(T) where f = E(F12-CCSD)/E(CCSD) 
f = CCSD (with F12)/ CCSD (without F12)    ...      1.000000000
Scaled triples correction (T)              ...      0.000000000

Final correlation energy                   ...     -0.095035483
E(QCISD)                                   ...     -1.020585917
E(QCISD(T))                                ...     -1.020585917

NORM  =      1.284686202 sqrt=     1.133439986
W(HF) =      0.778400203
------------------------------------------------------------------------------
                           ORCA POPULATION ANALYSIS
------------------------------------------------------------------------------
Input electron density              ... orca.mdcip
BaseName (.gbw .S,...)              ... orca


------------------------------------------------------------------------------- 
                                     TIMINGS                                   
------------------------------------------------------------------------------- 


Total execution time                   ...        0.268 sec

Fock Matrix Formation                  ...        0.008 sec (  3.0%)
Initial Guess                          ...        0.000 sec (  0.0%)
DIIS Solver                            ...        0.000 sec (  0.1%)
State Vector Update                    ...        0.000 sec (  0.0%)
Sigma-vector construction              ...        0.011 sec (  4.0%)
  <D|H|D>(4-ext)                       ...        0.008 sec ( 73.0% of sigma)
Total Time for computing (T)           ...        0.000 sec (  0.0% of ALL)


-------------------------   --------------------
FINAL SINGLE POINT ENERGY        -1.020585917102
-------------------------   --------------------

Storing actual gbw-file in orca.033.gbw ... done

                            ***************************************
                            *     ORCA property calculations      *
                            ***************************************

                                    ---------------------
                                    Active property flags
                                    ---------------------
   (+) Dipole Moment


------------------------------------------------------------------------------
                       ORCA ELECTRIC PROPERTIES CALCULATION
------------------------------------------------------------------------------

Dipole Moment Calculation                       ... on
Quadrupole Moment Calculation                   ... off
Polarizability Calculation                      ... off
GBWName                                         ... orca.gbw
Electron density file                           ... orca.scfp
The origin for moment calculation is the CENTER OF MASS  = ( 1.889726,  0.000000  0.000000)

-------------
DIPOLE MOMENT
-------------
                                X             Y             Z
Electronic contribution:     -0.00000      -0.00000      -0.00000
Nuclear contribution   :      0.00000       0.00000       0.00000
                        -----------------------------------------
Total Dipole Moment    :     -0.00000      -0.00000      -0.00000
                        -----------------------------------------
Magnitude (a.u.)       :      0.00000
Magnitude (Debye)      :      0.00000



--------------------
Rotational spectrum 
--------------------
 
Rotational constants in cm-1:     0.000000     8.361927     8.361927 
Rotational constants in MHz :     0.000000 250684.265719 250684.265719 

 Dipole components along the rotational axes: 
x,y,z [a.u.] :    -0.000000    -0.000000    -0.000000 
x,y,z [Debye]:    -0.000000    -0.000000    -0.000000 

 

                           *** MDCI DENSITY ***

------------------------------------------------------------------------------
                       ORCA ELECTRIC PROPERTIES CALCULATION
------------------------------------------------------------------------------

Dipole Moment Calculation                       ... on
Quadrupole Moment Calculation                   ... off
Polarizability Calculation                      ... off
GBWName                                         ... orca.gbw
Electron density file                           ... orca.mdcip
The origin for moment calculation is the CENTER OF MASS  = ( 1.889726,  0.000000  0.000000)

-------------
DIPOLE MOMENT
-------------
                                X             Y             Z
Electronic contribution:      0.00000       0.00000       0.00000
Nuclear contribution   :      0.00000       0.00000       0.00000
                        -----------------------------------------
Total Dipole Moment    :      0.00000       0.00000       0.00000
                        -----------------------------------------
Magnitude (a.u.)       :      0.00000
Magnitude (Debye)      :      0.00000



--------------------
Rotational spectrum 
--------------------
 
Rotational constants in cm-1:     0.000000     8.361927     8.361927 
Rotational constants in MHz :     0.000000 250684.265719 250684.265719 

 Dipole components along the rotational axes: 
x,y,z [a.u.] :     0.000000     0.000000     0.000000 
x,y,z [Debye]:     0.000000     0.000000     0.000000 

 
                              **** TRAJECTORY DONE ***

                         SUMMARY OF THE CALCULATED SURFACE

------------------
TRAJECTORY RESULTS
------------------

Column   1: R

The Calculated Surface using the 'Actual Energy'
   0.40000000  -0.97700008
   0.45000000  -1.05153076
   0.50000000  -1.10097802
   0.55000000  -1.13326707
   0.60000000  -1.15356239
   0.65000000  -1.16534631
   0.70000000  -1.17102913
   0.75000000  -1.17231331
   0.80000000  -1.17042153
   0.85000000  -1.16624480
   0.90000000  -1.16044119
   0.95000000  -1.15350261
   1.00000000  -1.14580077
   1.05000000  -1.13761917
   1.10000000  -1.12917570
   1.15000000  -1.12064214
   1.20000000  -1.11214385
   1.25000000  -1.10378528
   1.30000000  -1.09564564
   1.35000000  -1.08778616
   1.40000000  -1.08025358
   1.45000000  -1.07308282
   1.50000000  -1.06629901
   1.55000000  -1.05991902
   1.60000000  -1.05395267
   1.65000000  -1.04840362
   1.70000000  -1.04327018
   1.75000000  -1.03854593
   1.80000000  -1.03422039
   1.85000000  -1.03027959
   1.90000000  -1.02670665
   1.95000000  -1.02348240
   2.00000000  -1.02058592

                        *******************************
                        *   FIT OF THE ACT-ENERGY PES *
                        *******************************
-------------------------------
POTENTIAL ENERGY SURFACE =   0
-------------------------------

Minimum found after 14 iterations
Equilibrium distance and its energy from the interpolated PES:
  Re      =   0.74260 Angstroem  (  1.40331 Bohr)
  E(Re)   =    -1.172349 Eh 
  dE/dR   = 1.305e-09 (1.367e-02 CHEB)
  d2E/dR2 =    0.369695 (   0.401684 CHEB) (   0.482983 NUM)
  d3E/dR3 =   -1.400661 (  28.087992 CHEB)

Spectroscopic constants:
  we =    4420.2 cm**-1 (based on SPLINE)
  we =    4607.5 cm**-1 (based on CHEB)
  we =    5052.3 cm**-1 (based on NUM)

Performing Morse fit ...
Morse-Fit Results:
 Te(adiabatic)   = 1655719.3 cm**-1         =205.283 eV
 d2E/dR**2 (Morse)=  -3249.420361021 
 d3E/dR**3 (Morse)= 143757.255328650 
 d4E/dR**4 (Morse)= -4946627.163714150 
 E0               =      6.371663438 Eh  RMS=2.19e-02
 Re               =   0.22846 Angstroem      =  0.43173 Bohr RMS=4.44e-04)
 De(Morse)        = -203.29247 eV             =-1639664.5 cm**-1 RMS=2.19e-02
 D0(Morse)        =      -nan eV
 beta             =  14.74696 au          RMS=2.91e-02
 we               =     -nan cm**-1
 wexe             =  26169.1 cm**-1
 Displacement   =   -0.5141 Angstroem      = -0.97157 Bohr

The Calculated Surface using the SCF energy
   0.40000000  -0.93978764
   0.45000000  -1.01417954
   0.50000000  -1.06344706
   0.55000000  -1.09550042
   0.60000000  -1.11549317
   0.65000000  -1.12689885
   0.70000000  -1.13212056
   0.75000000  -1.13285462
   0.80000000  -1.13031829
   0.85000000  -1.12539769
   0.90000000  -1.11874629
   0.95000000  -1.11085141
   1.00000000  -1.10207989
   1.05000000  -1.09270996
   1.10000000  -1.08295390
   1.15000000  -1.07297432
   1.20000000  -1.06289608
   1.25000000  -1.05281509
   1.30000000  -1.04280482
   1.35000000  -1.03292131
   1.40000000  -1.02320689
   1.45000000  -1.01369318
   1.50000000  -1.00440334
   1.55000000  -0.99535388
   1.60000000  -0.98655606
   1.65000000  -0.97801702
   1.70000000  -0.96974061
   1.75000000  -0.96172815
   1.80000000  -0.95397889
   1.85000000  -0.94649049
   1.90000000  -0.93925940
   1.95000000  -0.93228111
   2.00000000  -0.92555043

                        *******************************
                        *       FIT OF THE SCF PES    *
                        *******************************
-------------------------------
POTENTIAL ENERGY SURFACE =   0
-------------------------------

Minimum found after 27 iterations
Equilibrium distance and its energy from the interpolated PES:
  Re      =   0.73426 Angstroem  (  1.38755 Bohr)
  E(Re)   =    -1.133026 Eh 
  dE/dR   = -7.190e-09 (1.318e-02 CHEB)
  d2E/dR2 =    0.402172 (   0.437840 CHEB) (   0.517636 NUM)
  d3E/dR3 =   -1.394471 (  29.711400 CHEB)

Spectroscopic constants:
  we =    4610.3 cm**-1 (based on SPLINE)
  we =    4810.4 cm**-1 (based on CHEB)
  we =    5230.4 cm**-1 (based on NUM)

Performing Morse fit ...
Morse-Fit Results:
 Te(adiabatic)   = 6569467.8 cm**-1         =814.510 eV
 d2E/dR**2 (Morse)= -23364.811465004 
 d3E/dR**3 (Morse)= 1386867.493492438 
 d4E/dR**4 (Morse)= -64027005.033751175 
 E0               =     28.799671264 Eh  RMS=9.91e-02
 Re               =   0.23006 Angstroem      =  0.43476 Bohr RMS=6.67e-04)
 De(Morse)        = -812.04489 eV             =-6549584.5 cm**-1 RMS=9.91e-02
 D0(Morse)        =      -nan eV
 beta             =  19.78570 au          RMS=5.00e-02
 we               =     -nan cm**-1
 wexe             =  47107.0 cm**-1
 Displacement   =   -0.5042 Angstroem      = -0.95279 Bohr

The Calculated Surface using the MDCI energy
   0.40000000  -0.97700008
   0.45000000  -1.05153076
   0.50000000  -1.10097802
   0.55000000  -1.13326707
   0.60000000  -1.15356239
   0.65000000  -1.16534631
   0.70000000  -1.17102913
   0.75000000  -1.17231331
   0.80000000  -1.17042153
   0.85000000  -1.16624480
   0.90000000  -1.16044119
   0.95000000  -1.15350261
   1.00000000  -1.14580077
   1.05000000  -1.13761917
   1.10000000  -1.12917570
   1.15000000  -1.12064214
   1.20000000  -1.11214385
   1.25000000  -1.10378528
   1.30000000  -1.09564564
   1.35000000  -1.08778616
   1.40000000  -1.08025358
   1.45000000  -1.07308282
   1.50000000  -1.06629901
   1.55000000  -1.05991902
   1.60000000  -1.05395267
   1.65000000  -1.04840362
   1.70000000  -1.04327018
   1.75000000  -1.03854593
   1.80000000  -1.03422039
   1.85000000  -1.03027959
   1.90000000  -1.02670665
   1.95000000  -1.02348240
   2.00000000  -1.02058592

                        *******************************
                        *      FIT OF THE MDCI PES    *
                        *******************************
-------------------------------
POTENTIAL ENERGY SURFACE =   0
-------------------------------

Minimum found after 14 iterations
Equilibrium distance and its energy from the interpolated PES:
  Re      =   0.74260 Angstroem  (  1.40331 Bohr)
  E(Re)   =    -1.172349 Eh 
  dE/dR   = 1.305e-09 (1.367e-02 CHEB)
  d2E/dR2 =    0.369695 (   0.401684 CHEB) (   0.482983 NUM)
  d3E/dR3 =   -1.400661 (  28.087992 CHEB)

Spectroscopic constants:
  we =    4420.2 cm**-1 (based on SPLINE)
  we =    4607.5 cm**-1 (based on CHEB)
  we =    5052.3 cm**-1 (based on NUM)

Performing Morse fit ...
Morse-Fit Results:
 Te(adiabatic)   = 1655719.3 cm**-1         =205.283 eV
 d2E/dR**2 (Morse)=  -3249.420361021 
 d3E/dR**3 (Morse)= 143757.255328650 
 d4E/dR**4 (Morse)= -4946627.163714150 
 E0               =      6.371663438 Eh  RMS=2.19e-02
 Re               =   0.22846 Angstroem      =  0.43173 Bohr RMS=4.44e-04)
 De(Morse)        = -203.29247 eV             =-1639664.5 cm**-1 RMS=2.19e-02
 D0(Morse)        =      -nan eV
 beta             =  14.74696 au          RMS=2.91e-02
 we               =     -nan cm**-1
 wexe             =  26169.1 cm**-1
 Displacement   =   -0.5141 Angstroem      = -0.97157 Bohr

The Calculated Surface using the MDCI energy minus triple correction
   0.40000000  -0.97700008
   0.45000000  -1.05153076
   0.50000000  -1.10097802
   0.55000000  -1.13326707
   0.60000000  -1.15356239
   0.65000000  -1.16534631
   0.70000000  -1.17102913
   0.75000000  -1.17231331
   0.80000000  -1.17042153
   0.85000000  -1.16624480
   0.90000000  -1.16044119
   0.95000000  -1.15350261
   1.00000000  -1.14580077
   1.05000000  -1.13761917
   1.10000000  -1.12917570
   1.15000000  -1.12064214
   1.20000000  -1.11214385
   1.25000000  -1.10378528
   1.30000000  -1.09564564
   1.35000000  -1.08778616
   1.40000000  -1.08025358
   1.45000000  -1.07308282
   1.50000000  -1.06629901
   1.55000000  -1.05991902
   1.60000000  -1.05395267
   1.65000000  -1.04840362
   1.70000000  -1.04327018
   1.75000000  -1.03854593
   1.80000000  -1.03422039
   1.85000000  -1.03027959
   1.90000000  -1.02670665
   1.95000000  -1.02348240
   2.00000000  -1.02058592

                        *******************************
                        *      FIT OF THE MDCI1 PES   *
                        *******************************
-------------------------------
POTENTIAL ENERGY SURFACE =   0
-------------------------------

Minimum found after 14 iterations
Equilibrium distance and its energy from the interpolated PES:
  Re      =   0.74260 Angstroem  (  1.40331 Bohr)
  E(Re)   =    -1.172349 Eh 
  dE/dR   = 1.305e-09 (1.367e-02 CHEB)
  d2E/dR2 =    0.369695 (   0.401684 CHEB) (   0.482983 NUM)
  d3E/dR3 =   -1.400661 (  28.087992 CHEB)

Spectroscopic constants:
  we =    4420.2 cm**-1 (based on SPLINE)
  we =    4607.5 cm**-1 (based on CHEB)
  we =    5052.3 cm**-1 (based on NUM)

Performing Morse fit ...
Morse-Fit Results:
 Te(adiabatic)   = 1655719.3 cm**-1         =205.283 eV
 d2E/dR**2 (Morse)=  -3249.420361021 
 d3E/dR**3 (Morse)= 143757.255328650 
 d4E/dR**4 (Morse)= -4946627.163714150 
 E0               =      6.371663438 Eh  RMS=2.19e-02
 Re               =   0.22846 Angstroem      =  0.43173 Bohr RMS=4.44e-04)
 De(Morse)        = -203.29247 eV             =-1639664.5 cm**-1 RMS=2.19e-02
 D0(Morse)        =      -nan eV
 beta             =  14.74696 au          RMS=2.91e-02
 we               =     -nan cm**-1
 wexe             =  26169.1 cm**-1
 Displacement   =   -0.5141 Angstroem      = -0.97157 Bohr


Timings for individual modules:

Sum of individual times         ...       46.710 sec (=   0.779 min)
GTO integral calculation        ...       11.849 sec (=   0.197 min)  25.4 %
SCF iterations                  ...       21.302 sec (=   0.355 min)  45.6 %
MDCI module                     ...       13.560 sec (=   0.226 min)  29.0 %
                             ****ORCA TERMINATED NORMALLY****
TOTAL RUN TIME: 0 days 0 hours 0 minutes 55 seconds 569 msec
