
                                 *****************
                                 * O   R   C   A *
                                 *****************

           --- An Ab Initio, DFT and Semiempirical electronic structure package ---

                  #######################################################
                  #                        -***-                        #
                  #          Department of theory and spectroscopy      #
                  #               Directorship: Frank Neese             #
                  #        Max Planck Institute fuer Kohlenforschung    #
                  #                Kaiser Wilhelm Platz 1               #
                  #                 D-45470 Muelheim/Ruhr               #
                  #                      Germany                        #
                  #                                                     #
                  #                  All rights reserved                #
                  #                        -***-                        #
                  #######################################################


                         Program Version 4.2.1 -  RELEASE  -


 With contributions from (in alphabetic order):
   Daniel Aravena         : Magnetic Suceptibility
   Michael Atanasov       : Ab Initio Ligand Field Theory (pilot matlab implementation)
   Alexander A. Auer      : GIAO ZORA, VPT2
   Ute Becker             : Parallelization
   Giovanni Bistoni       : ED, misc. LED, open-shell LED, HFLD
   Martin Brehm           : Molecular dynamics
   Dmytro Bykov           : SCF Hessian
   Vijay G. Chilkuri      : MRCI spin determinant printing, contributions to CSF-ICE
   Dipayan Datta          : RHF DLPNO-CCSD density
   Achintya Kumar Dutta   : EOM-CC, STEOM-CC
   Dmitry Ganyushin       : Spin-Orbit,Spin-Spin,Magnetic field MRCI
   Miquel Garcia          : C-PCM Hessian, Gaussian charge scheme
   Yang Guo               : DLPNO-NEVPT2, CIM, IAO-localization
   Andreas Hansen         : Spin unrestricted coupled pair/coupled cluster methods
   Benjamin Helmich-Paris : CASSCF linear response (MC-RPA)
   Lee Huntington         : MR-EOM, pCC
   Robert Izsak           : Overlap fitted RIJCOSX, COSX-SCS-MP3, EOM
   Christian Kollmar      : KDIIS, OOCD, Brueckner-CCSD(T), CCSD density
   Simone Kossmann        : Meta GGA functionals, TD-DFT gradient, OOMP2, MP2 Hessian
   Martin Krupicka        : AUTO-CI
   Lucas Lang             : DCDCAS
   Dagmar Lenk            : GEPOL surface, SMD
   Dimitrios Liakos       : Extrapolation schemes; Compound Job, initial MDCI parallelization
   Dimitrios Manganas     : Further ROCIS development; embedding schemes
   Dimitrios Pantazis     : SARC Basis sets
   Taras Petrenko         : DFT Hessian,TD-DFT gradient, ASA, ECA, R-Raman, ABS, FL, XAS/XES, NRVS
   Peter Pinski           : DLPNO-MP2, DLPNO-MP2 Gradient
   Christoph Reimann      : Effective Core Potentials
   Marius Retegan         : Local ZFS, SOC
   Christoph Riplinger    : Optimizer, TS searches, QM/MM, DLPNO-CCSD(T), (RO)-DLPNO pert. Triples
   Tobias Risthaus        : Range-separated hybrids, TD-DFT gradient, RPA, STAB
   Michael Roemelt        : Original ROCIS implementation
   Masaaki Saitow         : Open-shell DLPNO-CCSD energy and density
   Barbara Sandhoefer     : DKH picture change effects
   Avijit Sen             : IP-ROCIS
   Kantharuban Sivalingam : CASSCF convergence, NEVPT2, FIC-MRCI
   Bernardo de Souza      : ESD, SOC TD-DFT
   Georgi Stoychev        : AutoAux, RI-MP2 NMR
   Willem Van den Heuvel  : Paramagnetic NMR
   Boris Wezisla          : Elementary symmetry handling
   Frank Wennmohs         : Technical directorship


 We gratefully acknowledge several colleagues who have allowed us to
 interface, adapt or use parts of their codes:
   Stefan Grimme, W. Hujo, H. Kruse,             : VdW corrections, initial TS optimization,
                  C. Bannwarth                     DFT functionals, gCP, sTDA/sTD-DF
   Ed Valeev, F. Pavosevic, A. Kumar             : LibInt (2-el integral package), F12 methods
   Garnet Chan, S. Sharma, J. Yang, R. Olivares  : DMRG
   Ulf Ekstrom                                   : XCFun DFT Library
   Mihaly Kallay                                 : mrcc  (arbitrary order and MRCC methods)
   Andreas Klamt, Michael Diedenhofen            : otool_cosmo (COSMO solvation model)
   Jiri Pittner, Ondrej Demel                    : Mk-CCSD
   Frank Weinhold                                : gennbo (NPA and NBO analysis)
   Christopher J. Cramer and Donald G. Truhlar   : smd solvation model
   Lars Goerigk                                  : TD-DFT with DH, B97 family of functionals
   V. Asgeirsson, H. Jonsson                     : NEB implementation
   FAccTs GmbH                                   : IRC, NEB, NEB-TS, Multilevel, MM, QM/MM, CI optimization
   S Lehtola, MJT Oliveira, MAL Marques          : LibXC Library


 Your calculation uses the libint2 library for the computation of 2-el integrals
 For citations please refer to: http://libint.valeyev.net

 Your ORCA version has been built with support for libXC version: 4.2.3
 For citations please refer to: https://tddft.org/programs/libxc/

 This ORCA versions uses:
   CBLAS   interface :  Fast vector & matrix operations
   LAPACKE interface :  Fast linear algebra routines
   SCALAPACK package :  Parallel linear algebra routines


----- Orbital basis set information -----
Your calculation utilizes the basis: 6-311++G(3df,3pd)
   H, Li - Ne  : R. Krishnan, J. S. Binkley, R. Seeger and J. A. Pople, J. Chem. Phys. 72, 650 (1980).
   Na - Ar     : A. D. McLean and G. S. Chandler J. Chem. Phys. 72, 5639, (1980).
   K  - Ca     : J.-P. Blaudeau, M. P. McGrath, L. A. Curtiss and L. Radom, J. Chem. Phys. 107, 5016 (1997).
   Ga - Kr     : L. A. Curtiss, M. P. McGrath, J.-P. Blandeau, N. E. Davis, R. C. Binning and L. Radom, J. Chem. Phys. 103, 6104 (1995).
   Pol./Diff.
   H, Li - Cl  : T. Clark, J. Chandrasekhar and P. v. R. Schleyer, J. Comp. Chem. 4, 294 (1983).
   H - Ne      : M. J. Frisch, J. A. Pople and J. S. Binkley, J. Chem. Phys. 80, 3265 (1984).

================================================================================
                                        WARNINGS
                       Please study these warnings very carefully!
================================================================================


WARNING: MDCI localization with Augmented Hessian Foster-Boys
  ===> : Switching off randomization!

WARNING: Post HF methods need fully converged wavefunctions
  ===> : Setting SCFConvForced true
         You can overwrite this default with %scf ConvForced false 


INFO   : the flag for use of LIBINT has been found!

================================================================================
                                       INPUT FILE
================================================================================
NAME = orca.inp
|  1> !QCISD 6-311++G(3df,3pd) ENERGY
|  2> 
|  3> %paras
|  4> 	R = 0.4, 2.0, 33 # x-axis of H1
|  5> end
|  6> 
|  7> *xyz 0 1
|  8> H    0.0000000    0.0000000    0.0000000
|  9> H    {R}                0.0000000    0.0000000
| 10> **                         ****END OF INPUT****
================================================================================

                       ******************************
                       * Parameter Scan Calculation *
                       ******************************

Trajectory settings:
    -> SCF surface will be mapped
    -> MDCI surface will be mapped

There are 1 parameter(s) to be scanned
             R: range=   0.40000000 ..   2.00000000  steps=   33
There will be   33 energy evaluations


         *************************************************************
                                TRAJECTORY STEP   1
                  R  :   0.40000000
         *************************************************************
---------------------------------
CARTESIAN COORDINATES (ANGSTROEM)
---------------------------------
  H      0.000000    0.000000    0.000000
  H      0.400000    0.000000    0.000000

----------------------------
CARTESIAN COORDINATES (A.U.)
----------------------------
  NO LB      ZA    FRAG     MASS         X           Y           Z
   0 H     1.0000    0     1.008    0.000000    0.000000    0.000000
   1 H     1.0000    0     1.008    0.755890    0.000000    0.000000

--------------------------------
INTERNAL COORDINATES (ANGSTROEM)
--------------------------------
 H      0   0   0     0.000000000000     0.00000000     0.00000000
 H      1   0   0     0.400000000000     0.00000000     0.00000000

---------------------------
INTERNAL COORDINATES (A.U.)
---------------------------
 H      0   0   0     0.000000000000     0.00000000     0.00000000
 H      1   0   0     0.755890453569     0.00000000     0.00000000

---------------------
BASIS SET INFORMATION
---------------------
There are 1 groups of distinct atoms

 Group   1 Type H   : 6s3p1d contracted to 4s3p1d pattern {3111/111/1}

Atom   0H    basis set group =>   1
Atom   1H    basis set group =>   1
------------------------------------------------------------------------------
                           ORCA GTO INTEGRAL CALCULATION
------------------------------------------------------------------------------

                         BASIS SET STATISTICS AND STARTUP INFO

 # of primitive gaussian shells          ...   20
 # of primitive gaussian functions       ...   40
 # of contracted shells                  ...   16
 # of contracted basis functions         ...   36
 Highest angular momentum                ...    2
 Maximum contraction depth               ...    3
 Integral package used                   ... LIBINT
 Integral threshhold            Thresh   ...  1.000e-10
 Primitive cut-off              TCut     ...  1.000e-11


------------------------------ INTEGRAL EVALUATION ----------------------------


 * One electron integrals 
 Pre-screening matrix                    ... done
 Shell pair data                         ... done (   0.000 sec)

-------------------------------------------------------------------------------
                                 ORCA SCF
-------------------------------------------------------------------------------

------------
SCF SETTINGS
------------
Hamiltonian:
 Ab initio Hamiltonian  Method          .... Hartree-Fock(GTOs)


General Settings:
 Integral files         IntName         .... orca
 Hartree-Fock type      HFTyp           .... RHF
 Total Charge           Charge          ....    0
 Multiplicity           Mult            ....    1
 Number of Electrons    NEL             ....    2
 Basis Dimension        Dim             ....   36
 Nuclear Repulsion      ENuc            ....      1.3229430208 Eh

Convergence Acceleration:
 DIIS                   CNVDIIS         .... on
   Start iteration      DIISMaxIt       ....    12
   Startup error        DIISStart       ....  0.200000
   # of expansion vecs  DIISMaxEq       ....     5
   Bias factor          DIISBfac        ....   1.050
   Max. coefficient     DIISMaxC        ....  10.000
 Newton-Raphson         CNVNR           .... off
 SOSCF                  CNVSOSCF        .... on
   Start iteration      SOSCFMaxIt      ....   150
   Startup grad/error   SOSCFStart      ....  0.003300
 Level Shifting         CNVShift        .... on
   Level shift para.    LevelShift      ....    0.2500
   Turn off err/grad.   ShiftErr        ....    0.0010
 Zerner damping         CNVZerner       .... off
 Static damping         CNVDamp         .... on
   Fraction old density DampFac         ....    0.7000
   Max. Damping (<1)    DampMax         ....    0.9800
   Min. Damping (>=0)   DampMin         ....    0.0000
   Turn off err/grad.   DampErr         ....    0.1000
 Fernandez-Rico         CNVRico         .... off

SCF Procedure:
 Maximum # iterations   MaxIter         ....   125
 SCF integral mode      SCFMode         .... Direct
   Integral package                     .... LIBINT
 Reset frequency        DirectResetFreq ....    20
 Integral Threshold     Thresh          ....  1.000e-10 Eh
 Primitive CutOff       TCut            ....  1.000e-11 Eh

Convergence Tolerance:
 Convergence Check Mode ConvCheckMode   .... Total+1el-Energy
 Convergence forced     ConvForced      .... 1
 Energy Change          TolE            ....  1.000e-06 Eh
 1-El. energy change                    ....  1.000e-03 Eh
 Orbital Gradient       TolG            ....  5.000e-05
 Orbital Rotation angle TolX            ....  5.000e-05
 DIIS Error             TolErr          ....  1.000e-06


Diagonalization of the overlap matrix:
Smallest eigenvalue                        ... 3.129e-04
Time for diagonalization                   ...    0.520 sec
Threshold for overlap eigenvalues          ... 1.000e-08
Number of eigenvalues below threshold      ... 0
Time for construction of square roots      ...    0.000 sec
Total time needed                          ...    0.520 sec

-------------------
DFT GRID GENERATION
-------------------

General Integration Accuracy     IntAcc      ...  4.340
Radial Grid Type                 RadialGrid  ... Gauss-Chebyshev
Angular Grid (max. acc.)         AngularGrid ... Lebedev-110
Angular grid pruning method      GridPruning ... 3 (G Style)
Weight generation scheme         WeightScheme... Becke
Basis function cutoff            BFCut       ...    1.0000e-10
Integration weight cutoff        WCut        ...    1.0000e-14
Grids for H and He will be reduced by one unit

# of grid points (after initial pruning)     ...   1588 (   0.0 sec)
# of grid points (after weights+screening)   ...   1558 (   0.0 sec)
nearest neighbour list constructed           ...    0.0 sec
Grid point re-assignment to atoms done       ...    0.0 sec
Grid point division into batches done        ...    0.0 sec
Reduced shell lists constructed in    0.0 sec

Total number of grid points                  ...     1558
Total number of batches                      ...       26
Average number of points per batch           ...       59
Average number of grid points per atom       ...      779
Average number of shells per batch           ...    15.22 (95.14%)
Average number of basis functions per batch  ...    34.11 (94.75%)
Average number of large shells per batch     ...    15.11 (99.27%)
Average number of large basis fcns per batch ...    33.93 (99.46%)
Maximum spatial batch extension              ...  15.26, 21.59, 21.59 au
Average spatial batch extension              ...   4.39,  8.19,  8.26 au

Time for grid setup =    0.005 sec

------------------------------
INITIAL GUESS: MODEL POTENTIAL
------------------------------
Loading Hartree-Fock densities                     ... done
Calculating cut-offs                               ... done
Setting up the integral package                    ... done
Initializing the effective Hamiltonian             ... done
Starting the Coulomb interaction                   ... done (   0.0 sec)
Reading the grid                                   ... done
Mapping shells                                     ... done
Starting the XC term evaluation                    ... done (   0.0 sec)
Transforming the Hamiltonian                       ... done (   0.0 sec)
Diagonalizing the Hamiltonian                      ... done (   0.0 sec)
Back transforming the eigenvectors                 ... done (   0.0 sec)
Now organizing SCF variables                       ... done
                      ------------------
                      INITIAL GUESS DONE (   0.1 sec)
                      ------------------
--------------
SCF ITERATIONS
--------------
ITER       Energy         Delta-E        Max-DP      RMS-DP      [F,P]     Damp
               ***  Starting incremental Fock matrix formation  ***
  0     -0.9306555746   0.000000000000 0.00852208  0.00047969  0.1220488 0.7000
  1     -0.9334653516  -0.002809777050 0.00681874  0.00039404  0.0946563 0.7000
                               ***Turning on DIIS***
  2     -0.9356133269  -0.002147975241 0.01667814  0.00098469  0.0708679 0.0000
  3     -0.9428603517  -0.007247024859 0.00139571  0.00015465  0.0101102 0.0000
                      *** Initiating the SOSCF procedure ***
                           *** Shutting down DIIS ***
                      *** Re-Reading the Fockian *** 
                      *** Removing any level shift *** 
ITER      Energy       Delta-E        Grad      Rot      Max-DP    RMS-DP
  4     -0.94164598   0.0012143751  0.001377  0.001377  0.000619  0.000053
               *** Restarting incremental Fock matrix formation ***
  5     -0.94120406   0.0004419186  0.000281  0.000331  0.000187  0.000014
                 **** Energy Check signals convergence ****
              ***Rediagonalizing the Fockian in SOSCF/NRSCF***

               *****************************************************
               *                     SUCCESS                       *
               *           SCF CONVERGED AFTER   6 CYCLES          *
               *****************************************************


----------------
TOTAL SCF ENERGY
----------------

Total Energy       :           -0.94120445 Eh             -25.61148 eV

Components:
Nuclear Repulsion  :            1.32294302 Eh              35.99911 eV
Electronic Energy  :           -2.26414747 Eh             -61.61059 eV
One Electron Energy:           -3.07461569 Eh             -83.66455 eV
Two Electron Energy:            0.81046822 Eh              22.05396 eV

Virial components:
Potential Energy   :           -2.59457809 Eh             -70.60206 eV
Kinetic Energy     :            1.65337363 Eh              44.99058 eV
Virial Ratio       :            1.56926301


---------------
SCF CONVERGENCE
---------------

  Last Energy change         ...   -3.9580e-07  Tolerance :   1.0000e-06
  Last MAX-Density change    ...    6.0351e-05  Tolerance :   1.0000e-05
  Last RMS-Density change    ...    4.4185e-06  Tolerance :   1.0000e-06
  Last Orbital Gradient      ...    6.4637e-05  Tolerance :   5.0000e-05
  Last Orbital Rotation      ...    1.0664e-04  Tolerance :   5.0000e-05

             **** THE GBW FILE WAS UPDATED (orca.gbw) ****
             **** DENSITY FILE WAS UPDATED (orca.scfp) ****
             **** ENERGY FILE WAS UPDATED (orca.en.tmp) ****
             **** THE GBW FILE WAS UPDATED (orca.gbw) ****
             **** DENSITY FILE WAS UPDATED (orca.scfp) ****
----------------
ORBITAL ENERGIES
----------------

  NO   OCC          E(Eh)            E(eV) 
   0   2.0000      -0.726811       -19.7775 
   1   0.0000       0.068297         1.8584 
   2   0.0000       0.073078         1.9885 
   3   0.0000       0.255892         6.9632 
   4   0.0000       0.381069        10.3694 
   5   0.0000       0.381069        10.3694 
   6   0.0000       0.418500        11.3880 
   7   0.0000       0.603638        16.4258 
   8   0.0000       0.603638        16.4258 
   9   0.0000       0.625814        17.0293 
  10   0.0000       0.635292        17.2872 
  11   0.0000       1.343597        36.5611 
  12   0.0000       1.794224        48.8233 
  13   0.0000       1.794224        48.8233 
  14   0.0000       1.986178        54.0467 
  15   0.0000       2.329345        63.3847 
  16   0.0000       2.329345        63.3847 
  17   0.0000       2.797000        76.1102 
  18   0.0000       2.959166        80.5230 
  19   0.0000       3.137328        85.3710 
  20   0.0000       3.137328        85.3710 
  21   0.0000       4.085834       111.1812 
  22   0.0000       4.201764       114.3358 
  23   0.0000       4.201764       114.3358 
  24   0.0000       4.223608       114.9302 
  25   0.0000       4.223608       114.9302 
  26   0.0000       5.141714       139.9132 
  27   0.0000       5.141714       139.9132 
  28   0.0000       7.608223       207.0303 
  29   0.0000       7.984388       217.2662 
  30   0.0000       7.984388       217.2662 
  31   0.0000       8.630618       234.8511 
  32   0.0000       9.888036       269.0671 
  33   0.0000      11.287526       307.1492 
  34   0.0000      11.287526       307.1492 
  35   0.0000      15.825627       430.6372 

                    ********************************
                    * MULLIKEN POPULATION ANALYSIS *
                    ********************************

-----------------------
MULLIKEN ATOMIC CHARGES
-----------------------
   0 H :    0.000000
   1 H :   -0.000000
Sum of atomic charges:   -0.0000000

--------------------------------
MULLIKEN REDUCED ORBITAL CHARGES
--------------------------------
  0 H s       :     1.006277  s :     1.006277
      pz      :    -0.000000  p :    -0.003382
      px      :    -0.003382
      py      :     0.000000
      dz2     :    -0.000724  d :    -0.002895
      dxz     :    -0.000000
      dyz     :     0.000000
      dx2y2   :    -0.002171
      dxy     :    -0.000000
  1 H s       :     1.006277  s :     1.006277
      pz      :     0.000000  p :    -0.003382
      px      :    -0.003382
      py      :     0.000000
      dz2     :    -0.000724  d :    -0.002895
      dxz     :     0.000000
      dyz     :     0.000000
      dx2y2   :    -0.002171
      dxy     :    -0.000000


                     *******************************
                     * LOEWDIN POPULATION ANALYSIS *
                     *******************************

----------------------
LOEWDIN ATOMIC CHARGES
----------------------
   0 H :   -0.000000
   1 H :   -0.000000

-------------------------------
LOEWDIN REDUCED ORBITAL CHARGES
-------------------------------
  0 H s       :     0.951300  s :     0.951300
      pz      :     0.000000  p :     0.044707
      px      :     0.044707
      py      :     0.000000
      dz2     :     0.000998  d :     0.003993
      dxz     :     0.000000
      dyz     :     0.000000
      dx2y2   :     0.002995
      dxy     :     0.000000
  1 H s       :     0.951300  s :     0.951300
      pz      :     0.000000  p :     0.044707
      px      :     0.044707
      py      :     0.000000
      dz2     :     0.000998  d :     0.003993
      dxz     :     0.000000
      dyz     :     0.000000
      dx2y2   :     0.002995
      dxy     :     0.000000


                      *****************************
                      * MAYER POPULATION ANALYSIS *
                      *****************************

  NA   - Mulliken gross atomic population
  ZA   - Total nuclear charge
  QA   - Mulliken gross atomic charge
  VA   - Mayer's total valence
  BVA  - Mayer's bonded valence
  FA   - Mayer's free valence

  ATOM       NA         ZA         QA         VA         BVA        FA
  0 H      1.0000     1.0000     0.0000     1.0000     1.0000    -0.0000
  1 H      1.0000     1.0000    -0.0000     1.0000     1.0000    -0.0000

  Mayer bond orders larger than 0.100000
B(  0-H ,  1-H ) :   1.0000 

-------
TIMINGS
-------

Total SCF time: 0 days 0 hours 0 min 1 sec 

Total time                  ....       1.355 sec
Sum of individual times     ....       0.674 sec  ( 49.8%)

Fock matrix formation       ....       0.539 sec  ( 39.8%)
Diagonalization             ....       0.001 sec  (  0.1%)
Density matrix formation    ....       0.000 sec  (  0.0%)
Population analysis         ....       0.001 sec  (  0.0%)
Initial guess               ....       0.107 sec  (  7.9%)
Orbital Transformation      ....       0.000 sec  (  0.0%)
Orbital Orthonormalization  ....       0.000 sec  (  0.0%)
DIIS solution               ....       0.001 sec  (  0.0%)
SOSCF solution              ....       0.021 sec  (  1.6%)


------------------------------------------------------------------------------- 
                              ORCA-MATRIX DRIVEN CI                            
------------------------------------------------------------------------------- 

--------------------------------
AUTOMATIC CHOICE OF INCORE LEVEL
--------------------------------

Memory available                           ...    256.00 MB
Memory needed for S+T                      ...      0.02 MB
Memory needed for J+K                      ...      0.06 MB
Memory needed for DIIS                     ...      0.26 MB
Memory needed for 3-ext                    ...      0.33 MB
Memory needed for 4-ext                    ...      5.89 MB
Memory needed for triples                  ...      0.00 MB
 -> Final InCoreLevel    ... 5

Wavefunction type
-----------------
Correlation treatment                      ...     QCISD     
Single excitations                         ... ON
Orbital optimization                       ... OFF
Calculation of Z vector                    ... OFF
Calculation of Brueckner orbitals          ... OFF
Perturbative triple excitations            ... OFF
Calculation of F12 correction              ... OFF
Frozen core treatment                      ... chemical core (0 el)
Reference Wavefunction                     ... RHF
  Internal Orbitals:     0 ...    0 (  1 MO's/  2 electrons)
  Virtual  Orbitals:     1 ...   35 ( 35 MO's              )
Number of AO's                             ...     36
Number of electrons                        ...      2
Number of correlated electrons             ...      2

Algorithmic settings
--------------------
Integral transformation                    ... AO direct full transformation
K(C) Formation                             ... FULL-MO TRAFO
Maximum number of iterations               ...        50
Convergence tolerance (max. residuum)      ... 2.500e-05
Level shift for amplitude update           ... 2.000e-01
Maximum number of DIIS vectors             ...         7
DIIS turned on at iteration                ...         0
Damping before turning on DIIS             ...     0.500
Damping after turning on DIIS              ...     0.000
Pair specific amplitude update             ... OFF
Natural orbital iterations                 ... OFF
Perturbative natural orbital generation    ... OFF
Printlevel                                 ... 2

Memory handling:
----------------
Maximum memory for working arrays          ...    256 MB
Data storage in matrix containers          ... UNCOMPRESSED
Data type for integral storage             ... DOUBLE
In-Core Storage of quantities:
   Amplitudes+Sigma Vector      ... YES
   J+K operators                ... YES
   DIIS vectors                 ... YES
   3-external integrals         ... YES
   4-external integrals         ... YES


Initializing the integral package          ... done
Warning: reference  - re-canonicalizations have been set to INT 1 VIRT 1

--------------------------
CLOSED-SHELL FOCK OPERATOR
--------------------------

<ss|ss>:          666 b            0 skpd (  0.0%)    0.000 s ( 0.000 ms/b)
<ss|sp>:         1728 b            0 skpd (  0.0%)    0.001 s ( 0.000 ms/b)
<ss|sd>:          576 b            0 skpd (  0.0%)    0.000 s ( 0.001 ms/b)
<ss|pp>:          756 b            0 skpd (  0.0%)    0.000 s ( 0.000 ms/b)
<ss|pd>:          432 b            0 skpd (  0.0%)    0.000 s ( 0.001 ms/b)
<ss|dd>:          108 b            0 skpd (  0.0%)    0.000 s ( 0.001 ms/b)
<sp|sp>:         1176 b            0 skpd (  0.0%)    0.001 s ( 0.001 ms/b)
<sp|sd>:          768 b            0 skpd (  0.0%)    0.001 s ( 0.001 ms/b)
<sp|pp>:         1008 b            0 skpd (  0.0%)    0.001 s ( 0.001 ms/b)
<sp|pd>:          576 b            0 skpd (  0.0%)    0.001 s ( 0.002 ms/b)
<sp|dd>:          144 b            0 skpd (  0.0%)    0.000 s ( 0.003 ms/b)
<sd|sd>:          136 b            0 skpd (  0.0%)    0.000 s ( 0.002 ms/b)
<sd|pp>:          336 b            0 skpd (  0.0%)    0.001 s ( 0.002 ms/b)
<sd|pd>:          192 b            0 skpd (  0.0%)    0.001 s ( 0.003 ms/b)
<sd|dd>:           48 b            0 skpd (  0.0%)    0.000 s ( 0.006 ms/b)
<pp|pp>:          231 b            0 skpd (  0.0%)    0.001 s ( 0.002 ms/b)
<pp|pd>:          252 b            0 skpd (  0.0%)    0.001 s ( 0.004 ms/b)
<pp|dd>:           63 b            0 skpd (  0.0%)    0.000 s ( 0.006 ms/b)
<pd|pd>:           78 b            0 skpd (  0.0%)    0.001 s ( 0.008 ms/b)
<pd|dd>:           36 b            0 skpd (  0.0%)    0.001 s ( 0.014 ms/b)
<dd|dd>:            6 b            0 skpd (  0.0%)    0.000 s ( 0.028 ms/b)
Recanonicalizing the internal orbitals
Recanonicalizing the virtual orbitals
Time needed for Fock operator              ...            0.138 sec
Reference energy                           ...     -0.941204477

------------------------------
PARTIAL COULOMB TRANSFORMATION
------------------------------

Transformation type                        ... one-operator
Dimension of the basis                     ...   36
Number of internal MOs                     ...   36 (0-35)
Pair cutoff                                ... 0.000e+00 Eh
Number of AO pairs included in the trafo   ...  666
Total Number of distinct AO pairs          ...  666
Memory devoted for trafo                   ...  256.0 MB 
Max. Number of MO pairs treated together   ... 50382      
Max. Number of MOs treated per batch       ... 1399      
Number Format for Storage                  ... Double (8 Byte)
AO-integral source                         ... DIRECT
Integral package used                      ... LIBINT

Starting integral evaluation:
<ss|**>:         4896 b        0 skpd     0.002 s (  0.001 ms/b)
<sp|**>:         6528 b        0 skpd     0.005 s (  0.001 ms/b)
<sd|**>:         2176 b        0 skpd     0.003 s (  0.001 ms/b)
<pp|**>:         2856 b        0 skpd     0.005 s (  0.002 ms/b)
<pd|**>:         1632 b        0 skpd     0.005 s (  0.003 ms/b)
<dd|**>:          408 b        0 skpd     0.002 s (  0.005 ms/b)
Closing buffer AOJ ( 0.00 GB; CompressionRatio= 1.00)
Collecting buffer AOJ 
    ... done with AO integral generation
Number of MO pairs included in the trafo   ...  666
    ... Now sorting integrals
IBATCH = 1 of  1
Closing buffer JAO ( 0.00 GB; CompressionRatio= 1.00)
Collecting buffer JAO 
TOTAL TIME for half transformation         ...     0.035 sec
AO-integral generation                     ...     0.011 sec
Half transformation                        ...     0.012 sec
J-integral sorting                         ...     0.012 sec

-------------------------- SECOND HALF TRANSFORMATION -------------------------
Formation of (pq|rs)                       ... ok (     0.012 sec)
Integral sorting                           ... ok (     0.014 sec)

------------------
CLOSED SHELL GUESS
------------------

Initial guess performed in     0.000 sec
E(0)                                       ...     -0.941204477
E(MP2)                                     ...     -0.031704736
Initial E(tot)                             ...     -0.972909213
<T|T>                                      ...      0.007153824
Number of pairs included                   ... 1
Total number of pairs                      ... 1

---------------------------
RHF QUADRATIC CI ITERATIONS
---------------------------

Number of amplitudes to be optimized       ... 1260

Iter       E(tot)           E(Corr)          Delta-E          Residual     Time
  0     -0.972909213     -0.031704736      0.000000000      0.017796021    0.00
                           *** Turning on DIIS ***
  1     -0.977230185     -0.036025707     -0.004320971      0.005078609    0.00
  2     -0.978815565     -0.037611088     -0.001585381      0.000481813    0.00
  3     -0.978904016     -0.037699539     -0.000088451      0.000112808    0.00
  4     -0.978911985     -0.037707507     -0.000007968      0.000026940    0.00
  5     -0.978912643     -0.037708165     -0.000000658      0.000005999    0.00
               --- The Quadratic CI iterations have converged ---

-------------------
QUADRATIC CI ENERGY
-------------------

E(0)                                       ...     -0.941204477
E(CORR)                                    ...     -0.037708165
E(TOT)                                     ...     -0.978912643
Singles Norm <S|S>**1/2                    ...      0.002064482  
T1 diagnostic                              ...      0.001459809  

------------------
LARGEST AMPLITUDES
------------------
   0->  6   0->  6       0.029544
   0-> 14   0-> 14       0.026651
   0-> 13   0-> 13       0.024288
   0-> 12   0-> 12       0.024288
   0->  6   0-> 14       0.023694
   0-> 14   0->  6       0.023694
   0->  9   0->  9       0.021628
   0->  4   0->  4       0.021105
   0->  5   0->  5       0.021105
   0-> 11   0->  9       0.019211
   0->  9   0-> 11       0.019211
   0-> 11   0-> 11       0.019095
   0->  5   0-> 13       0.018464
   0-> 13   0->  5       0.018464
   0->  4   0-> 12       0.018464
   0-> 12   0->  4       0.018464


        !!!!!!!!!!!!!!!!!!!!!!!!!!!!!!!!!!!!!!!!!!!!!!!!!!!!!!!!!!!!!!!!!!!!!!!!!! 
        !  Warning: Densities are linearized densities !                         !
        !!!!!!!!!!!!!!!!!!!!!!!!!!!!!!!!!!!!!!!!!!!!!!!!!!!!!!!!!!!!!!!!!!!!!!!!!! 

Trace of internal density part =     -0.022197458
Trace of external density part =      0.022197458
NORM  =      1.011102991 sqrt=     1.005536171
W(HF) =      0.989018931
------------------------------------------------------------------------------
                           ORCA POPULATION ANALYSIS
------------------------------------------------------------------------------
Input electron density              ... orca.mdcip
BaseName (.gbw .S,...)              ... orca

                    ********************************
                    * MULLIKEN POPULATION ANALYSIS *
                    ********************************

-----------------------
MULLIKEN ATOMIC CHARGES
-----------------------
   0 H :   -0.000000
   1 H :    0.000000
Sum of atomic charges:   -0.0000000

--------------------------------
MULLIKEN REDUCED ORBITAL CHARGES
--------------------------------
  0 H s       :     1.001090  s :     1.001090
      pz      :     0.001867  p :     0.001460
      px      :    -0.002273
      py      :     0.001867
      dz2     :    -0.000665  d :    -0.002550
      dxz     :     0.000078
      dyz     :     0.000044
      dx2y2   :    -0.002084
      dxy     :     0.000078
  1 H s       :     1.001090  s :     1.001090
      pz      :     0.001867  p :     0.001460
      px      :    -0.002273
      py      :     0.001867
      dz2     :    -0.000665  d :    -0.002550
      dxz     :     0.000078
      dyz     :     0.000044
      dx2y2   :    -0.002084
      dxy     :     0.000078


                     *******************************
                     * LOEWDIN POPULATION ANALYSIS *
                     *******************************

----------------------
LOEWDIN ATOMIC CHARGES
----------------------
   0 H :   -0.000000
   1 H :    0.000000

-------------------------------
LOEWDIN REDUCED ORBITAL CHARGES
-------------------------------
  0 H s       :     0.943981  s :     0.943981
      pz      :     0.001829  p :     0.051277
      px      :     0.047619
      py      :     0.001829
      dz2     :     0.001139  d :     0.004743
      dxz     :     0.000116
      dyz     :     0.000044
      dx2y2   :     0.003329
      dxy     :     0.000116
  1 H s       :     0.943981  s :     0.943981
      pz      :     0.001829  p :     0.051277
      px      :     0.047619
      py      :     0.001829
      dz2     :     0.001139  d :     0.004743
      dxz     :     0.000116
      dyz     :     0.000044
      dx2y2   :     0.003329
      dxy     :     0.000116


                      *****************************
                      * MAYER POPULATION ANALYSIS *
                      *****************************

  NA   - Mulliken gross atomic population
  ZA   - Total nuclear charge
  QA   - Mulliken gross atomic charge
  VA   - Mayer's total valence
  BVA  - Mayer's bonded valence
  FA   - Mayer's free valence

  ATOM       NA         ZA         QA         VA         BVA        FA
  0 H      1.0000     1.0000    -0.0000     1.0186     0.9746     0.0441
  1 H      1.0000     1.0000     0.0000     1.0186     0.9746     0.0441

  Mayer bond orders larger than 0.100000
B(  0-H ,  1-H ) :   0.9746 



------------------------------------------------------------------------------- 
                                     TIMINGS                                   
------------------------------------------------------------------------------- 


Total execution time                   ...        1.912 sec

Fock Matrix Formation                  ...        0.138 sec (  7.2%)
Initial Guess                          ...        0.000 sec (  0.0%)
DIIS Solver                            ...        0.000 sec (  0.0%)
State Vector Update                    ...        0.000 sec (  0.0%)
Sigma-vector construction              ...        0.016 sec (  0.8%)
  <D|H|D>(4-ext)                       ...        0.013 sec ( 80.3% of sigma)


-------------------------   --------------------
FINAL SINGLE POINT ENERGY        -0.978912642748
-------------------------   --------------------

Storing actual gbw-file in orca.001.gbw ... done

                            ***************************************
                            *     ORCA property calculations      *
                            ***************************************

                                    ---------------------
                                    Active property flags
                                    ---------------------
   (+) Dipole Moment


------------------------------------------------------------------------------
                       ORCA ELECTRIC PROPERTIES CALCULATION
------------------------------------------------------------------------------

Dipole Moment Calculation                       ... on
Quadrupole Moment Calculation                   ... off
Polarizability Calculation                      ... off
GBWName                                         ... orca.gbw
Electron density file                           ... orca.scfp
The origin for moment calculation is the CENTER OF MASS  = ( 0.377945,  0.000000  0.000000)

-------------
DIPOLE MOMENT
-------------
                                X             Y             Z
Electronic contribution:      0.00000       0.00000      -0.00000
Nuclear contribution   :      0.00000       0.00000       0.00000
                        -----------------------------------------
Total Dipole Moment    :      0.00000       0.00000      -0.00000
                        -----------------------------------------
Magnitude (a.u.)       :      0.00000
Magnitude (Debye)      :      0.00000



--------------------
Rotational spectrum 
--------------------
 
Rotational constants in cm-1:     0.000000   209.048176   209.048176 
Rotational constants in MHz :     0.000000 6267106.642963 6267106.642963 

 Dipole components along the rotational axes: 
x,y,z [a.u.] :     0.000000     0.000000    -0.000000 
x,y,z [Debye]:     0.000000     0.000000    -0.000000 

 

                           *** MDCI DENSITY ***

------------------------------------------------------------------------------
                       ORCA ELECTRIC PROPERTIES CALCULATION
------------------------------------------------------------------------------

Dipole Moment Calculation                       ... on
Quadrupole Moment Calculation                   ... off
Polarizability Calculation                      ... off
GBWName                                         ... orca.gbw
Electron density file                           ... orca.mdcip
The origin for moment calculation is the CENTER OF MASS  = ( 0.377945,  0.000000  0.000000)

-------------
DIPOLE MOMENT
-------------
                                X             Y             Z
Electronic contribution:      0.00000       0.00000      -0.00000
Nuclear contribution   :      0.00000       0.00000       0.00000
                        -----------------------------------------
Total Dipole Moment    :      0.00000       0.00000      -0.00000
                        -----------------------------------------
Magnitude (a.u.)       :      0.00000
Magnitude (Debye)      :      0.00000



--------------------
Rotational spectrum 
--------------------
 
Rotational constants in cm-1:     0.000000   209.048176   209.048176 
Rotational constants in MHz :     0.000000 6267106.642963 6267106.642963 

 Dipole components along the rotational axes: 
x,y,z [a.u.] :     0.000000     0.000000    -0.000000 
x,y,z [Debye]:     0.000000     0.000000    -0.000000 

 

         *************************************************************
                                TRAJECTORY STEP   2
                  R  :   0.45000000
         *************************************************************
---------------------------------
CARTESIAN COORDINATES (ANGSTROEM)
---------------------------------
  H      0.000000    0.000000    0.000000
  H      0.450000    0.000000    0.000000

----------------------------
CARTESIAN COORDINATES (A.U.)
----------------------------
  NO LB      ZA    FRAG     MASS         X           Y           Z
   0 H     1.0000    0     1.008    0.000000    0.000000    0.000000
   1 H     1.0000    0     1.008    0.850377    0.000000    0.000000

--------------------------------
INTERNAL COORDINATES (ANGSTROEM)
--------------------------------
 H      0   0   0     0.000000000000     0.00000000     0.00000000
 H      1   0   0     0.450000000000     0.00000000     0.00000000

---------------------------
INTERNAL COORDINATES (A.U.)
---------------------------
 H      0   0   0     0.000000000000     0.00000000     0.00000000
 H      1   0   0     0.850376760265     0.00000000     0.00000000


Diagonalization of the overlap matrix:
Smallest eigenvalue                        ... 3.833e-04
Time for diagonalization                   ...    0.000 sec
Threshold for overlap eigenvalues          ... 1.000e-08
Number of eigenvalues below threshold      ... 0
Time for construction of square roots      ...    0.000 sec
Total time needed                          ...    0.001 sec

--------------
SCF ITERATIONS
--------------
ITER       Energy         Delta-E        Max-DP      RMS-DP      [F,P]     Damp
               ***  Starting incremental Fock matrix formation  ***
  0     -1.0138735115   0.000000000000 0.00580317  0.00039516  0.0319506 0.7000
                      *** Initiating the SOSCF procedure ***
                      *** Re-Reading the Fockian *** 
                      *** Removing any level shift *** 
ITER      Energy       Delta-E        Grad      Rot      Max-DP    RMS-DP
  1     -1.01417811  -0.0003045966  0.002982  0.002982  0.014783  0.000989
               *** Restarting incremental Fock matrix formation ***
  2     -1.01499564  -0.0008175300  0.003016  0.001504  0.001172  0.000095
  3     -1.01501196  -0.0000163197  0.000384  0.000355  0.000293  0.000025
                 **** Energy Check signals convergence ****
              ***Rediagonalizing the Fockian in SOSCF/NRSCF***

               *****************************************************
               *                     SUCCESS                       *
               *           SCF CONVERGED AFTER   4 CYCLES          *
               *****************************************************

Total Energy       :           -1.01501254 Eh             -27.61990 eV
  Last Energy change         ...   -5.8412e-07  Tolerance :   1.0000e-06
  Last MAX-Density change    ...    3.5448e-05  Tolerance :   1.0000e-05
             **** THE GBW FILE WAS UPDATED (orca.gbw) ****
             **** DENSITY FILE WAS UPDATED (orca.scfp) ****
             **** ENERGY FILE WAS UPDATED (orca.en.tmp) ****
             **** THE GBW FILE WAS UPDATED (orca.gbw) ****
             **** DENSITY FILE WAS UPDATED (orca.scfp) ****
Total SCF time: 0 days 0 hours 0 min 0 sec 


------------------------------------------------------------------------------- 
                              ORCA-MATRIX DRIVEN CI                            
------------------------------------------------------------------------------- 

--------------------------------
AUTOMATIC CHOICE OF INCORE LEVEL
--------------------------------

Memory available                           ...    256.00 MB
Memory needed for S+T                      ...      0.02 MB
Memory needed for J+K                      ...      0.06 MB
Memory needed for DIIS                     ...      0.26 MB
Memory needed for 3-ext                    ...      0.33 MB
Memory needed for 4-ext                    ...      5.89 MB
Memory needed for triples                  ...      0.00 MB
 -> Final InCoreLevel    ... 5

Wavefunction type
-----------------
Correlation treatment                      ...     QCISD     
Single excitations                         ... ON
Orbital optimization                       ... OFF
Calculation of Z vector                    ... OFF
Calculation of Brueckner orbitals          ... OFF
Perturbative triple excitations            ... OFF
Calculation of F12 correction              ... OFF
Frozen core treatment                      ... chemical core (0 el)
Reference Wavefunction                     ... RHF
  Internal Orbitals:     0 ...    0 (  1 MO's/  2 electrons)
  Virtual  Orbitals:     1 ...   35 ( 35 MO's              )
Number of AO's                             ...     36
Number of electrons                        ...      2
Number of correlated electrons             ...      2

Algorithmic settings
--------------------
Integral transformation                    ... AO direct full transformation
K(C) Formation                             ... FULL-MO TRAFO
Maximum number of iterations               ...        50
Convergence tolerance (max. residuum)      ... 2.500e-05
Level shift for amplitude update           ... 2.000e-01
Maximum number of DIIS vectors             ...         7
DIIS turned on at iteration                ...         0
Damping before turning on DIIS             ...     0.500
Damping after turning on DIIS              ...     0.000
Pair specific amplitude update             ... OFF
Natural orbital iterations                 ... OFF
Perturbative natural orbital generation    ... OFF
Printlevel                                 ... 2

Memory handling:
----------------
Maximum memory for working arrays          ...    256 MB
Data storage in matrix containers          ... UNCOMPRESSED
Data type for integral storage             ... DOUBLE
In-Core Storage of quantities:
   Amplitudes+Sigma Vector      ... YES
   J+K operators                ... YES
   DIIS vectors                 ... YES
   3-external integrals         ... YES
   4-external integrals         ... YES


Initializing the integral package          ... done
Warning: reference  - re-canonicalizations have been set to INT 1 VIRT 1

--------------------------
CLOSED-SHELL FOCK OPERATOR
--------------------------

<ss|ss>:          666 b            0 skpd (  0.0%)    0.000 s ( 0.000 ms/b)
<ss|sp>:         1728 b            0 skpd (  0.0%)    0.001 s ( 0.000 ms/b)
<ss|sd>:          576 b            0 skpd (  0.0%)    0.000 s ( 0.001 ms/b)
<ss|pp>:          756 b            0 skpd (  0.0%)    0.000 s ( 0.000 ms/b)
<ss|pd>:          432 b            0 skpd (  0.0%)    0.000 s ( 0.001 ms/b)
<ss|dd>:          108 b            0 skpd (  0.0%)    0.000 s ( 0.001 ms/b)
<sp|sp>:         1176 b            0 skpd (  0.0%)    0.001 s ( 0.001 ms/b)
<sp|sd>:          768 b            0 skpd (  0.0%)    0.001 s ( 0.001 ms/b)
<sp|pp>:         1008 b            0 skpd (  0.0%)    0.001 s ( 0.001 ms/b)
<sp|pd>:          576 b            0 skpd (  0.0%)    0.001 s ( 0.002 ms/b)
<sp|dd>:          144 b            0 skpd (  0.0%)    0.000 s ( 0.003 ms/b)
<sd|sd>:          136 b            0 skpd (  0.0%)    0.000 s ( 0.002 ms/b)
<sd|pp>:          336 b            0 skpd (  0.0%)    0.001 s ( 0.002 ms/b)
<sd|pd>:          192 b            0 skpd (  0.0%)    0.001 s ( 0.003 ms/b)
<sd|dd>:           48 b            0 skpd (  0.0%)    0.000 s ( 0.006 ms/b)
<pp|pp>:          231 b            0 skpd (  0.0%)    0.001 s ( 0.002 ms/b)
<pp|pd>:          252 b            0 skpd (  0.0%)    0.001 s ( 0.004 ms/b)
<pp|dd>:           63 b            0 skpd (  0.0%)    0.000 s ( 0.007 ms/b)
<pd|pd>:           78 b            0 skpd (  0.0%)    0.001 s ( 0.009 ms/b)
<pd|dd>:           36 b            0 skpd (  0.0%)    0.001 s ( 0.015 ms/b)
<dd|dd>:            6 b            0 skpd (  0.0%)    0.000 s ( 0.030 ms/b)
Recanonicalizing the internal orbitals
Recanonicalizing the virtual orbitals
Time needed for Fock operator              ...            0.012 sec
Reference energy                           ...     -1.015012545

------------------------------
PARTIAL COULOMB TRANSFORMATION
------------------------------

Transformation type                        ... one-operator
Dimension of the basis                     ...   36
Number of internal MOs                     ...   36 (0-35)
Pair cutoff                                ... 0.000e+00 Eh
Number of AO pairs included in the trafo   ...  666
Total Number of distinct AO pairs          ...  666
Memory devoted for trafo                   ...  256.0 MB 
Max. Number of MO pairs treated together   ... 50382      
Max. Number of MOs treated per batch       ... 1399      
Number Format for Storage                  ... Double (8 Byte)
AO-integral source                         ... DIRECT
Integral package used                      ... LIBINT

Starting integral evaluation:
<ss|**>:         4896 b        0 skpd     0.002 s (  0.000 ms/b)
<sp|**>:         6528 b        0 skpd     0.005 s (  0.001 ms/b)
<sd|**>:         2176 b        0 skpd     0.003 s (  0.001 ms/b)
<pp|**>:         2856 b        0 skpd     0.005 s (  0.002 ms/b)
<pd|**>:         1632 b        0 skpd     0.005 s (  0.003 ms/b)
<dd|**>:          408 b        0 skpd     0.002 s (  0.005 ms/b)
Closing buffer AOJ ( 0.00 GB; CompressionRatio= 1.00)
Collecting buffer AOJ 
    ... done with AO integral generation
Number of MO pairs included in the trafo   ...  666
    ... Now sorting integrals
IBATCH = 1 of  1
Closing buffer JAO ( 0.00 GB; CompressionRatio= 1.00)
Collecting buffer JAO 
TOTAL TIME for half transformation         ...     0.036 sec
AO-integral generation                     ...     0.011 sec
Half transformation                        ...     0.012 sec
J-integral sorting                         ...     0.012 sec

-------------------------- SECOND HALF TRANSFORMATION -------------------------
Formation of (pq|rs)                       ... ok (     0.012 sec)
Integral sorting                           ... ok (     0.018 sec)

------------------
CLOSED SHELL GUESS
------------------

Initial guess performed in     0.000 sec
E(0)                                       ...     -1.015012545
E(MP2)                                     ...     -0.031620842
Initial E(tot)                             ...     -1.046633387
<T|T>                                      ...      0.007495921
Number of pairs included                   ... 1
Total number of pairs                      ... 1

---------------------------
RHF QUADRATIC CI ITERATIONS
---------------------------

Number of amplitudes to be optimized       ... 1260

Iter       E(tot)           E(Corr)          Delta-E          Residual     Time
  0     -1.046633387     -0.031620842      0.000000000      0.016645040    0.00
                           *** Turning on DIIS ***
  1     -1.050985215     -0.035972670     -0.004351828      0.004890268    0.00
  2     -1.052652278     -0.037639733     -0.001667062      0.000605720    0.00
  3     -1.052753926     -0.037741381     -0.000101648      0.000144551    0.00
  4     -1.052763278     -0.037750733     -0.000009352      0.000021603    0.00
               --- The Quadratic CI iterations have converged ---

-------------------
QUADRATIC CI ENERGY
-------------------

E(0)                                       ...     -1.015012545
E(CORR)                                    ...     -0.037750733
E(TOT)                                     ...     -1.052763278
Singles Norm <S|S>**1/2                    ...      0.002666094  
T1 diagnostic                              ...      0.001885213  

------------------
LARGEST AMPLITUDES
------------------
   0->  6   0->  6       0.030209
   0-> 14   0-> 14       0.025139
   0->  9   0->  9       0.024040
   0-> 13   0-> 13       0.023901
   0-> 12   0-> 12       0.023901
   0-> 14   0->  6       0.023027
   0->  6   0-> 14       0.023027
   0->  4   0->  4       0.022710
   0->  5   0->  5       0.022710
   0->  9   0-> 11       0.020567
   0-> 11   0->  9       0.020567
   0-> 11   0-> 11       0.019753
   0->  4   0-> 12       0.018095
   0-> 12   0->  4       0.018095
   0->  5   0-> 13       0.018095
   0-> 13   0->  5       0.018095


        !!!!!!!!!!!!!!!!!!!!!!!!!!!!!!!!!!!!!!!!!!!!!!!!!!!!!!!!!!!!!!!!!!!!!!!!!! 
        !  Warning: Densities are linearized densities !                         !
        !!!!!!!!!!!!!!!!!!!!!!!!!!!!!!!!!!!!!!!!!!!!!!!!!!!!!!!!!!!!!!!!!!!!!!!!!! 

Trace of internal density part =     -0.023556541
Trace of external density part =      0.023556541
NORM  =      1.011785378 sqrt=     1.005875429
W(HF) =      0.988351899
------------------------------------------------------------------------------
                           ORCA POPULATION ANALYSIS
------------------------------------------------------------------------------
Input electron density              ... orca.mdcip
BaseName (.gbw .S,...)              ... orca


------------------------------------------------------------------------------- 
                                     TIMINGS                                   
------------------------------------------------------------------------------- 


Total execution time                   ...        0.200 sec

Fock Matrix Formation                  ...        0.012 sec (  5.9%)
Initial Guess                          ...        0.000 sec (  0.0%)
DIIS Solver                            ...        0.000 sec (  0.1%)
State Vector Update                    ...        0.000 sec (  0.0%)
Sigma-vector construction              ...        0.017 sec (  8.5%)
  <D|H|D>(4-ext)                       ...        0.014 sec ( 80.5% of sigma)


-------------------------   --------------------
FINAL SINGLE POINT ENERGY        -1.052763277663
-------------------------   --------------------

Storing actual gbw-file in orca.002.gbw ... done

                            ***************************************
                            *     ORCA property calculations      *
                            ***************************************

                                    ---------------------
                                    Active property flags
                                    ---------------------
   (+) Dipole Moment


------------------------------------------------------------------------------
                       ORCA ELECTRIC PROPERTIES CALCULATION
------------------------------------------------------------------------------

Dipole Moment Calculation                       ... on
Quadrupole Moment Calculation                   ... off
Polarizability Calculation                      ... off
GBWName                                         ... orca.gbw
Electron density file                           ... orca.scfp
The origin for moment calculation is the CENTER OF MASS  = ( 0.425188,  0.000000  0.000000)

-------------
DIPOLE MOMENT
-------------
                                X             Y             Z
Electronic contribution:     -0.00000       0.00000      -0.00000
Nuclear contribution   :      0.00000       0.00000       0.00000
                        -----------------------------------------
Total Dipole Moment    :     -0.00000       0.00000      -0.00000
                        -----------------------------------------
Magnitude (a.u.)       :      0.00000
Magnitude (Debye)      :      0.00000



--------------------
Rotational spectrum 
--------------------
 
Rotational constants in cm-1:     0.000000   165.173867   165.173867 
Rotational constants in MHz :     0.000000 4951787.964811 4951787.964811 

 Dipole components along the rotational axes: 
x,y,z [a.u.] :    -0.000000     0.000000    -0.000000 
x,y,z [Debye]:    -0.000000     0.000000    -0.000000 

 

                           *** MDCI DENSITY ***

------------------------------------------------------------------------------
                       ORCA ELECTRIC PROPERTIES CALCULATION
------------------------------------------------------------------------------

Dipole Moment Calculation                       ... on
Quadrupole Moment Calculation                   ... off
Polarizability Calculation                      ... off
GBWName                                         ... orca.gbw
Electron density file                           ... orca.mdcip
The origin for moment calculation is the CENTER OF MASS  = ( 0.425188,  0.000000  0.000000)

-------------
DIPOLE MOMENT
-------------
                                X             Y             Z
Electronic contribution:     -0.00000      -0.00000       0.00000
Nuclear contribution   :      0.00000       0.00000       0.00000
                        -----------------------------------------
Total Dipole Moment    :     -0.00000      -0.00000       0.00000
                        -----------------------------------------
Magnitude (a.u.)       :      0.00000
Magnitude (Debye)      :      0.00000



--------------------
Rotational spectrum 
--------------------
 
Rotational constants in cm-1:     0.000000   165.173867   165.173867 
Rotational constants in MHz :     0.000000 4951787.964811 4951787.964811 

 Dipole components along the rotational axes: 
x,y,z [a.u.] :    -0.000000    -0.000000     0.000000 
x,y,z [Debye]:    -0.000000    -0.000000     0.000000 

 

         *************************************************************
                                TRAJECTORY STEP   3
                  R  :   0.50000000
         *************************************************************
---------------------------------
CARTESIAN COORDINATES (ANGSTROEM)
---------------------------------
  H      0.000000    0.000000    0.000000
  H      0.500000    0.000000    0.000000

----------------------------
CARTESIAN COORDINATES (A.U.)
----------------------------
  NO LB      ZA    FRAG     MASS         X           Y           Z
   0 H     1.0000    0     1.008    0.000000    0.000000    0.000000
   1 H     1.0000    0     1.008    0.944863    0.000000    0.000000

--------------------------------
INTERNAL COORDINATES (ANGSTROEM)
--------------------------------
 H      0   0   0     0.000000000000     0.00000000     0.00000000
 H      1   0   0     0.500000000000     0.00000000     0.00000000

---------------------------
INTERNAL COORDINATES (A.U.)
---------------------------
 H      0   0   0     0.000000000000     0.00000000     0.00000000
 H      1   0   0     0.944863066961     0.00000000     0.00000000


Diagonalization of the overlap matrix:
Smallest eigenvalue                        ... 4.627e-04
Time for diagonalization                   ...    0.001 sec
Threshold for overlap eigenvalues          ... 1.000e-08
Number of eigenvalues below threshold      ... 0
Time for construction of square roots      ...    0.000 sec
Total time needed                          ...    0.001 sec

--------------
SCF ITERATIONS
--------------
ITER       Energy         Delta-E        Max-DP      RMS-DP      [F,P]     Damp
               ***  Starting incremental Fock matrix formation  ***
  0     -1.0629529238   0.000000000000 0.00469449  0.00030746  0.0313525 0.7000
                      *** Initiating the SOSCF procedure ***
                      *** Re-Reading the Fockian *** 
                      *** Removing any level shift *** 
ITER      Energy       Delta-E        Grad      Rot      Max-DP    RMS-DP
  1     -1.06320821  -0.0002552839  0.002405  0.002405  0.012057  0.000774
               *** Restarting incremental Fock matrix formation ***
  2     -1.06389468  -0.0006864770  0.002342  0.001546  0.001029  0.000086
  3     -1.06390898  -0.0000142944  0.000310  0.000364  0.000301  0.000024
                 **** Energy Check signals convergence ****
              ***Rediagonalizing the Fockian in SOSCF/NRSCF***

               *****************************************************
               *                     SUCCESS                       *
               *           SCF CONVERGED AFTER   4 CYCLES          *
               *****************************************************

Total Energy       :           -1.06390950 Eh             -28.95045 eV
  Last Energy change         ...   -5.2260e-07  Tolerance :   1.0000e-06
  Last MAX-Density change    ...    3.4302e-05  Tolerance :   1.0000e-05
             **** THE GBW FILE WAS UPDATED (orca.gbw) ****
             **** DENSITY FILE WAS UPDATED (orca.scfp) ****
             **** ENERGY FILE WAS UPDATED (orca.en.tmp) ****
             **** THE GBW FILE WAS UPDATED (orca.gbw) ****
             **** DENSITY FILE WAS UPDATED (orca.scfp) ****
Total SCF time: 0 days 0 hours 0 min 0 sec 


------------------------------------------------------------------------------- 
                              ORCA-MATRIX DRIVEN CI                            
------------------------------------------------------------------------------- 

--------------------------------
AUTOMATIC CHOICE OF INCORE LEVEL
--------------------------------

Memory available                           ...    256.00 MB
Memory needed for S+T                      ...      0.02 MB
Memory needed for J+K                      ...      0.06 MB
Memory needed for DIIS                     ...      0.26 MB
Memory needed for 3-ext                    ...      0.33 MB
Memory needed for 4-ext                    ...      5.89 MB
Memory needed for triples                  ...      0.00 MB
 -> Final InCoreLevel    ... 5

Wavefunction type
-----------------
Correlation treatment                      ...     QCISD     
Single excitations                         ... ON
Orbital optimization                       ... OFF
Calculation of Z vector                    ... OFF
Calculation of Brueckner orbitals          ... OFF
Perturbative triple excitations            ... OFF
Calculation of F12 correction              ... OFF
Frozen core treatment                      ... chemical core (0 el)
Reference Wavefunction                     ... RHF
  Internal Orbitals:     0 ...    0 (  1 MO's/  2 electrons)
  Virtual  Orbitals:     1 ...   35 ( 35 MO's              )
Number of AO's                             ...     36
Number of electrons                        ...      2
Number of correlated electrons             ...      2

Algorithmic settings
--------------------
Integral transformation                    ... AO direct full transformation
K(C) Formation                             ... FULL-MO TRAFO
Maximum number of iterations               ...        50
Convergence tolerance (max. residuum)      ... 2.500e-05
Level shift for amplitude update           ... 2.000e-01
Maximum number of DIIS vectors             ...         7
DIIS turned on at iteration                ...         0
Damping before turning on DIIS             ...     0.500
Damping after turning on DIIS              ...     0.000
Pair specific amplitude update             ... OFF
Natural orbital iterations                 ... OFF
Perturbative natural orbital generation    ... OFF
Printlevel                                 ... 2

Memory handling:
----------------
Maximum memory for working arrays          ...    256 MB
Data storage in matrix containers          ... UNCOMPRESSED
Data type for integral storage             ... DOUBLE
In-Core Storage of quantities:
   Amplitudes+Sigma Vector      ... YES
   J+K operators                ... YES
   DIIS vectors                 ... YES
   3-external integrals         ... YES
   4-external integrals         ... YES


Initializing the integral package          ... done
Warning: reference  - re-canonicalizations have been set to INT 1 VIRT 1

--------------------------
CLOSED-SHELL FOCK OPERATOR
--------------------------

<ss|ss>:          666 b            0 skpd (  0.0%)    0.000 s ( 0.000 ms/b)
<ss|sp>:         1728 b            0 skpd (  0.0%)    0.001 s ( 0.000 ms/b)
<ss|sd>:          576 b            0 skpd (  0.0%)    0.000 s ( 0.001 ms/b)
<ss|pp>:          756 b            0 skpd (  0.0%)    0.000 s ( 0.000 ms/b)
<ss|pd>:          432 b            0 skpd (  0.0%)    0.000 s ( 0.001 ms/b)
<ss|dd>:          108 b            0 skpd (  0.0%)    0.000 s ( 0.001 ms/b)
<sp|sp>:         1176 b            0 skpd (  0.0%)    0.001 s ( 0.001 ms/b)
<sp|sd>:          768 b            0 skpd (  0.0%)    0.001 s ( 0.001 ms/b)
<sp|pp>:         1008 b            0 skpd (  0.0%)    0.001 s ( 0.001 ms/b)
<sp|pd>:          576 b            0 skpd (  0.0%)    0.001 s ( 0.002 ms/b)
<sp|dd>:          144 b            0 skpd (  0.0%)    0.000 s ( 0.003 ms/b)
<sd|sd>:          136 b            0 skpd (  0.0%)    0.000 s ( 0.002 ms/b)
<sd|pp>:          336 b            0 skpd (  0.0%)    0.001 s ( 0.002 ms/b)
<sd|pd>:          192 b            0 skpd (  0.0%)    0.001 s ( 0.003 ms/b)
<sd|dd>:           48 b            0 skpd (  0.0%)    0.000 s ( 0.006 ms/b)
<pp|pp>:          231 b            0 skpd (  0.0%)    0.001 s ( 0.003 ms/b)
<pp|pd>:          252 b            0 skpd (  0.0%)    0.001 s ( 0.004 ms/b)
<pp|dd>:           63 b            0 skpd (  0.0%)    0.000 s ( 0.007 ms/b)
<pd|pd>:           78 b            0 skpd (  0.0%)    0.001 s ( 0.009 ms/b)
<pd|dd>:           36 b            0 skpd (  0.0%)    0.001 s ( 0.014 ms/b)
<dd|dd>:            6 b            0 skpd (  0.0%)    0.000 s ( 0.029 ms/b)
Recanonicalizing the internal orbitals
Recanonicalizing the virtual orbitals
Time needed for Fock operator              ...            0.012 sec
Reference energy                           ...     -1.063909504

------------------------------
PARTIAL COULOMB TRANSFORMATION
------------------------------

Transformation type                        ... one-operator
Dimension of the basis                     ...   36
Number of internal MOs                     ...   36 (0-35)
Pair cutoff                                ... 0.000e+00 Eh
Number of AO pairs included in the trafo   ...  666
Total Number of distinct AO pairs          ...  666
Memory devoted for trafo                   ...  256.0 MB 
Max. Number of MO pairs treated together   ... 50382      
Max. Number of MOs treated per batch       ... 1399      
Number Format for Storage                  ... Double (8 Byte)
AO-integral source                         ... DIRECT
Integral package used                      ... LIBINT

Starting integral evaluation:
<ss|**>:         4896 b        0 skpd     0.002 s (  0.000 ms/b)
<sp|**>:         6528 b        0 skpd     0.005 s (  0.001 ms/b)
<sd|**>:         2176 b        0 skpd     0.003 s (  0.001 ms/b)
<pp|**>:         2856 b        0 skpd     0.005 s (  0.002 ms/b)
<pd|**>:         1632 b        0 skpd     0.005 s (  0.003 ms/b)
<dd|**>:          408 b        0 skpd     0.002 s (  0.005 ms/b)
Closing buffer AOJ ( 0.00 GB; CompressionRatio= 1.00)
Collecting buffer AOJ 
    ... done with AO integral generation
Number of MO pairs included in the trafo   ...  666
    ... Now sorting integrals
IBATCH = 1 of  1
Closing buffer JAO ( 0.00 GB; CompressionRatio= 1.00)
Collecting buffer JAO 
TOTAL TIME for half transformation         ...     0.037 sec
AO-integral generation                     ...     0.011 sec
Half transformation                        ...     0.012 sec
J-integral sorting                         ...     0.013 sec

-------------------------- SECOND HALF TRANSFORMATION -------------------------
Formation of (pq|rs)                       ... ok (     0.012 sec)
Integral sorting                           ... ok (     0.018 sec)

------------------
CLOSED SHELL GUESS
------------------

Initial guess performed in     0.000 sec
E(0)                                       ...     -1.063909504
E(MP2)                                     ...     -0.031573714
Initial E(tot)                             ...     -1.095483219
<T|T>                                      ...      0.007869436
Number of pairs included                   ... 1
Total number of pairs                      ... 1

---------------------------
RHF QUADRATIC CI ITERATIONS
---------------------------

Number of amplitudes to be optimized       ... 1260

Iter       E(tot)           E(Corr)          Delta-E          Residual     Time
  0     -1.095483219     -0.031573714      0.000000000      0.015902907    0.00
                           *** Turning on DIIS ***
  1     -1.099877764     -0.035968260     -0.004394545      0.004670020    0.00
  2     -1.101639219     -0.037729715     -0.001761455      0.000746289    0.00
  3     -1.101759333     -0.037849828     -0.000120113      0.000179067    0.00
  4     -1.101770821     -0.037861317     -0.000011488      0.000027870    0.00
  5     -1.101771559     -0.037862055     -0.000000738      0.000005175    0.00
               --- The Quadratic CI iterations have converged ---

-------------------
QUADRATIC CI ENERGY
-------------------

E(0)                                       ...     -1.063909504
E(CORR)                                    ...     -0.037862055
E(TOT)                                     ...     -1.101771559
Singles Norm <S|S>**1/2                    ...      0.003347128  
T1 diagnostic                              ...      0.002366777  

------------------
LARGEST AMPLITUDES
------------------
   0->  6   0->  6       0.030765
   0->  7   0->  7       0.026540
   0->  5   0->  5       0.024289
   0->  4   0->  4       0.024289
   0-> 14   0-> 14       0.023581
   0-> 12   0-> 12       0.023421
   0-> 13   0-> 13       0.023421
   0->  6   0-> 14       0.022272
   0-> 14   0->  6       0.022272
   0-> 11   0->  7       0.021838
   0->  7   0-> 11       0.021838
   0-> 11   0-> 11       0.020229
   0->  3   0->  7       0.020033
   0->  7   0->  3       0.020033
   0->  3   0->  3       0.015811
   0->  3   0-> 11       0.015365


        !!!!!!!!!!!!!!!!!!!!!!!!!!!!!!!!!!!!!!!!!!!!!!!!!!!!!!!!!!!!!!!!!!!!!!!!!! 
        !  Warning: Densities are linearized densities !                         !
        !!!!!!!!!!!!!!!!!!!!!!!!!!!!!!!!!!!!!!!!!!!!!!!!!!!!!!!!!!!!!!!!!!!!!!!!!! 

Trace of internal density part =     -0.025116383
Trace of external density part =      0.025116383
NORM  =      1.012569395 sqrt=     1.006265072
W(HF) =      0.987586634
------------------------------------------------------------------------------
                           ORCA POPULATION ANALYSIS
------------------------------------------------------------------------------
Input electron density              ... orca.mdcip
BaseName (.gbw .S,...)              ... orca


------------------------------------------------------------------------------- 
                                     TIMINGS                                   
------------------------------------------------------------------------------- 


Total execution time                   ...        0.212 sec

Fock Matrix Formation                  ...        0.012 sec (  5.5%)
Initial Guess                          ...        0.000 sec (  0.0%)
DIIS Solver                            ...        0.000 sec (  0.2%)
State Vector Update                    ...        0.000 sec (  0.0%)
Sigma-vector construction              ...        0.020 sec (  9.3%)
  <D|H|D>(4-ext)                       ...        0.016 sec ( 80.4% of sigma)


-------------------------   --------------------
FINAL SINGLE POINT ENERGY        -1.101771559023
-------------------------   --------------------

Storing actual gbw-file in orca.003.gbw ... done

                            ***************************************
                            *     ORCA property calculations      *
                            ***************************************

                                    ---------------------
                                    Active property flags
                                    ---------------------
   (+) Dipole Moment


------------------------------------------------------------------------------
                       ORCA ELECTRIC PROPERTIES CALCULATION
------------------------------------------------------------------------------

Dipole Moment Calculation                       ... on
Quadrupole Moment Calculation                   ... off
Polarizability Calculation                      ... off
GBWName                                         ... orca.gbw
Electron density file                           ... orca.scfp
The origin for moment calculation is the CENTER OF MASS  = ( 0.472432,  0.000000  0.000000)

-------------
DIPOLE MOMENT
-------------
                                X             Y             Z
Electronic contribution:     -0.00000       0.00000      -0.00000
Nuclear contribution   :      0.00000       0.00000       0.00000
                        -----------------------------------------
Total Dipole Moment    :     -0.00000       0.00000      -0.00000
                        -----------------------------------------
Magnitude (a.u.)       :      0.00000
Magnitude (Debye)      :      0.00000



--------------------
Rotational spectrum 
--------------------
 
Rotational constants in cm-1:     0.000000   133.790832   133.790832 
Rotational constants in MHz :     0.000000 4010948.251497 4010948.251497 

 Dipole components along the rotational axes: 
x,y,z [a.u.] :    -0.000000     0.000000    -0.000000 
x,y,z [Debye]:    -0.000000     0.000000    -0.000000 

 

                           *** MDCI DENSITY ***

------------------------------------------------------------------------------
                       ORCA ELECTRIC PROPERTIES CALCULATION
------------------------------------------------------------------------------

Dipole Moment Calculation                       ... on
Quadrupole Moment Calculation                   ... off
Polarizability Calculation                      ... off
GBWName                                         ... orca.gbw
Electron density file                           ... orca.mdcip
The origin for moment calculation is the CENTER OF MASS  = ( 0.472432,  0.000000  0.000000)

-------------
DIPOLE MOMENT
-------------
                                X             Y             Z
Electronic contribution:      0.00000      -0.00000      -0.00000
Nuclear contribution   :      0.00000       0.00000       0.00000
                        -----------------------------------------
Total Dipole Moment    :      0.00000      -0.00000      -0.00000
                        -----------------------------------------
Magnitude (a.u.)       :      0.00000
Magnitude (Debye)      :      0.00000



--------------------
Rotational spectrum 
--------------------
 
Rotational constants in cm-1:     0.000000   133.790832   133.790832 
Rotational constants in MHz :     0.000000 4010948.251497 4010948.251497 

 Dipole components along the rotational axes: 
x,y,z [a.u.] :     0.000000    -0.000000    -0.000000 
x,y,z [Debye]:     0.000000    -0.000000    -0.000000 

 

         *************************************************************
                                TRAJECTORY STEP   4
                  R  :   0.55000000
         *************************************************************
---------------------------------
CARTESIAN COORDINATES (ANGSTROEM)
---------------------------------
  H      0.000000    0.000000    0.000000
  H      0.550000    0.000000    0.000000

----------------------------
CARTESIAN COORDINATES (A.U.)
----------------------------
  NO LB      ZA    FRAG     MASS         X           Y           Z
   0 H     1.0000    0     1.008    0.000000    0.000000    0.000000
   1 H     1.0000    0     1.008    1.039349    0.000000    0.000000

--------------------------------
INTERNAL COORDINATES (ANGSTROEM)
--------------------------------
 H      0   0   0     0.000000000000     0.00000000     0.00000000
 H      1   0   0     0.550000000000     0.00000000     0.00000000

---------------------------
INTERNAL COORDINATES (A.U.)
---------------------------
 H      0   0   0     0.000000000000     0.00000000     0.00000000
 H      1   0   0     1.039349373657     0.00000000     0.00000000


Diagonalization of the overlap matrix:
Smallest eigenvalue                        ... 5.536e-04
Time for diagonalization                   ...    0.000 sec
Threshold for overlap eigenvalues          ... 1.000e-08
Number of eigenvalues below threshold      ... 0
Time for construction of square roots      ...    0.000 sec
Total time needed                          ...    0.001 sec

--------------
SCF ITERATIONS
--------------
ITER       Energy         Delta-E        Max-DP      RMS-DP      [F,P]     Damp
               ***  Starting incremental Fock matrix formation  ***
  0     -1.0949243771   0.000000000000 0.00369678  0.00023765  0.0304257 0.7000
                      *** Initiating the SOSCF procedure ***
                      *** Re-Reading the Fockian *** 
                      *** Removing any level shift *** 
ITER      Energy       Delta-E        Grad      Rot      Max-DP    RMS-DP
  1     -1.09514227  -0.0002178925  0.002293  0.002293  0.009584  0.000604
               *** Restarting incremental Fock matrix formation ***
  2     -1.09573066  -0.0005883946  0.001899  0.001552  0.000883  0.000081
  3     -1.09574369  -0.0000130230  0.000306  0.000371  0.000311  0.000023
                 **** Energy Check signals convergence ****
              ***Rediagonalizing the Fockian in SOSCF/NRSCF***

               *****************************************************
               *                     SUCCESS                       *
               *           SCF CONVERGED AFTER   4 CYCLES          *
               *****************************************************

Total Energy       :           -1.09574417 Eh             -29.81671 eV
  Last Energy change         ...   -4.8569e-07  Tolerance :   1.0000e-06
  Last MAX-Density change    ...    3.2738e-05  Tolerance :   1.0000e-05
             **** THE GBW FILE WAS UPDATED (orca.gbw) ****
             **** DENSITY FILE WAS UPDATED (orca.scfp) ****
             **** ENERGY FILE WAS UPDATED (orca.en.tmp) ****
             **** THE GBW FILE WAS UPDATED (orca.gbw) ****
             **** DENSITY FILE WAS UPDATED (orca.scfp) ****
Total SCF time: 0 days 0 hours 0 min 0 sec 


------------------------------------------------------------------------------- 
                              ORCA-MATRIX DRIVEN CI                            
------------------------------------------------------------------------------- 

--------------------------------
AUTOMATIC CHOICE OF INCORE LEVEL
--------------------------------

Memory available                           ...    256.00 MB
Memory needed for S+T                      ...      0.02 MB
Memory needed for J+K                      ...      0.06 MB
Memory needed for DIIS                     ...      0.26 MB
Memory needed for 3-ext                    ...      0.33 MB
Memory needed for 4-ext                    ...      5.89 MB
Memory needed for triples                  ...      0.00 MB
 -> Final InCoreLevel    ... 5

Wavefunction type
-----------------
Correlation treatment                      ...     QCISD     
Single excitations                         ... ON
Orbital optimization                       ... OFF
Calculation of Z vector                    ... OFF
Calculation of Brueckner orbitals          ... OFF
Perturbative triple excitations            ... OFF
Calculation of F12 correction              ... OFF
Frozen core treatment                      ... chemical core (0 el)
Reference Wavefunction                     ... RHF
  Internal Orbitals:     0 ...    0 (  1 MO's/  2 electrons)
  Virtual  Orbitals:     1 ...   35 ( 35 MO's              )
[...]
Maximum number of DIIS vectors             ...         7
DIIS turned on at iteration                ...         0
Damping before turning on DIIS             ...     0.500
Damping after turning on DIIS              ...     0.000
Pair specific amplitude update             ... OFF
Natural orbital iterations                 ... OFF
Perturbative natural orbital generation    ... OFF
Printlevel                                 ... 2

Memory handling:
----------------
Maximum memory for working arrays          ...    256 MB
Data storage in matrix containers          ... UNCOMPRESSED
Data type for integral storage             ... DOUBLE
In-Core Storage of quantities:
   Amplitudes+Sigma Vector      ... YES
   J+K operators                ... YES
   DIIS vectors                 ... YES
   3-external integrals         ... YES
   4-external integrals         ... YES


Initializing the integral package          ... done
Warning: reference  - re-canonicalizations have been set to INT 1 VIRT 1

--------------------------
CLOSED-SHELL FOCK OPERATOR
--------------------------

<ss|ss>:          666 b            0 skpd (  0.0%)    0.000 s ( 0.000 ms/b)
<ss|sp>:         1728 b            0 skpd (  0.0%)    0.001 s ( 0.000 ms/b)
<ss|sd>:          576 b            0 skpd (  0.0%)    0.000 s ( 0.000 ms/b)
<ss|pp>:          756 b           12 skpd (  1.6%)    0.000 s ( 0.000 ms/b)
<ss|pd>:          432 b            0 skpd (  0.0%)    0.000 s ( 0.001 ms/b)
<ss|dd>:          108 b            0 skpd (  0.0%)    0.000 s ( 0.001 ms/b)
<sp|sp>:         1176 b            3 skpd (  0.3%)    0.001 s ( 0.000 ms/b)
<sp|sd>:          768 b            0 skpd (  0.0%)    0.001 s ( 0.001 ms/b)
<sp|pp>:         1008 b           44 skpd (  4.4%)    0.001 s ( 0.001 ms/b)
<sp|pd>:          576 b            4 skpd (  0.7%)    0.001 s ( 0.001 ms/b)
<sp|dd>:          144 b            0 skpd (  0.0%)    0.000 s ( 0.002 ms/b)
<sd|sd>:          136 b            0 skpd (  0.0%)    0.000 s ( 0.001 ms/b)
<sd|pp>:          336 b           16 skpd (  4.8%)    0.000 s ( 0.001 ms/b)
<sd|pd>:          192 b            0 skpd (  0.0%)    0.001 s ( 0.003 ms/b)
<sd|dd>:           48 b            0 skpd (  0.0%)    0.000 s ( 0.005 ms/b)
<pp|pp>:          231 b           21 skpd (  9.1%)    0.000 s ( 0.002 ms/b)
<pp|pd>:          252 b           16 skpd (  6.3%)    0.001 s ( 0.004 ms/b)
<pp|dd>:           63 b            3 skpd (  4.8%)    0.000 s ( 0.006 ms/b)
<pd|pd>:           78 b            3 skpd (  3.8%)    0.001 s ( 0.007 ms/b)
<pd|dd>:           36 b            0 skpd (  0.0%)    0.000 s ( 0.013 ms/b)
<dd|dd>:            6 b            0 skpd (  0.0%)    0.000 s ( 0.028 ms/b)
Recanonicalizing the internal orbitals
Recanonicalizing the virtual orbitals
Time needed for Fock operator              ...            0.010 sec
Reference energy                           ...     -0.926019234

------------------------------
PARTIAL COULOMB TRANSFORMATION
------------------------------

Transformation type                        ... one-operator
Dimension of the basis                     ...   36
Number of internal MOs                     ...   36 (0-35)
Pair cutoff                                ... 0.000e+00 Eh
Number of AO pairs included in the trafo   ...  666
Total Number of distinct AO pairs          ...  666
Memory devoted for trafo                   ...  256.0 MB 
Max. Number of MO pairs treated together   ... 50382      
Max. Number of MOs treated per batch       ... 1399      
Number Format for Storage                  ... Double (8 Byte)
AO-integral source                         ... DIRECT
Integral package used                      ... LIBINT

Starting integral evaluation:
<ss|**>:         4896 b        0 skpd     0.002 s (  0.000 ms/b)
<sp|**>:         6528 b        0 skpd     0.005 s (  0.001 ms/b)
<sd|**>:         2176 b        0 skpd     0.003 s (  0.001 ms/b)
<pp|**>:         2856 b        0 skpd     0.004 s (  0.002 ms/b)
<pd|**>:         1632 b        0 skpd     0.005 s (  0.003 ms/b)
<dd|**>:          408 b        0 skpd     0.002 s (  0.004 ms/b)
Closing buffer AOJ ( 0.00 GB; CompressionRatio= 1.00)
Collecting buffer AOJ 
    ... done with AO integral generation
Number of MO pairs included in the trafo   ...  666
    ... Now sorting integrals
IBATCH = 1 of  1
Closing buffer JAO ( 0.00 GB; CompressionRatio= 1.00)
Collecting buffer JAO 
TOTAL TIME for half transformation         ...     0.031 sec
AO-integral generation                     ...     0.010 sec
Half transformation                        ...     0.011 sec
J-integral sorting                         ...     0.009 sec

-------------------------- SECOND HALF TRANSFORMATION -------------------------
Formation of (pq|rs)                       ... ok (     0.011 sec)
Integral sorting                           ... ok (     0.010 sec)

------------------
CLOSED SHELL GUESS
------------------

Initial guess performed in     0.000 sec
E(0)                                       ...     -0.926019234
E(MP2)                                     ...     -0.051992511
Initial E(tot)                             ...     -0.978011745
<T|T>                                      ...      0.054948476
Number of pairs included                   ... 1
Total number of pairs                      ... 1

---------------------------
RHF QUADRATIC CI ITERATIONS
---------------------------

Number of amplitudes to be optimized       ... 1260

Iter       E(tot)           E(Corr)          Delta-E          Residual     Time
  0     -0.978011745     -0.051992511     -0.000000000      0.067234902    0.00
                           *** Turning on DIIS ***
  1     -0.990609747     -0.064590513     -0.012598002      0.050843455    0.00
  2     -1.004336308     -0.078317074     -0.013726561      0.029768834    0.00
  3     -1.019428477     -0.093409244     -0.015092169      0.003359592    0.00
  4     -1.020657375     -0.094638141     -0.001228898      0.000699208    0.00
  5     -1.020827943     -0.094808709     -0.000170568      0.000183690    0.00
  6     -1.020896750     -0.094877516     -0.000068807      0.000033524    0.00
  7     -1.020894276     -0.094875042      0.000002474      0.000007723    0.00
               --- The Quadratic CI iterations have converged ---

-------------------
QUADRATIC CI ENERGY
-------------------

E(0)                                       ...     -0.926019234
E(CORR)                                    ...     -0.094875042
E(TOT)                                     ...     -1.020894276
Singles Norm <S|S>**1/2                    ...      0.088356978  
T1 diagnostic                              ...      0.062477818  

------------------
LARGEST AMPLITUDES
------------------
   0->  1   0->  1       0.447847
   0->  1   0->  3       0.145475
   0->  3   0->  1       0.145475
   0->  9   0->  1       0.092821
   0->  1   0->  9       0.092821
   0-> 10  -1-> -1       0.067351
   0->  2  -1-> -1       0.049030
   0->  3   0->  3       0.047600
   0->  3   0->  9       0.031183
   0->  9   0->  3       0.031183
   0->  5   0->  5       0.028154
   0->  4   0->  4       0.028154
   0->  6  -1-> -1       0.026631
   0->  6   0->  6       0.023379
   0->  9   0->  9       0.022671
   0->  2   0->  6       0.012930


        !!!!!!!!!!!!!!!!!!!!!!!!!!!!!!!!!!!!!!!!!!!!!!!!!!!!!!!!!!!!!!!!!!!!!!!!!! 
        !  Warning: Densities are linearized densities !                         !
        !!!!!!!!!!!!!!!!!!!!!!!!!!!!!!!!!!!!!!!!!!!!!!!!!!!!!!!!!!!!!!!!!!!!!!!!!! 

Trace of internal density part =     -0.552072316
Trace of external density part =      0.552072316
NORM  =      1.283843113 sqrt=     1.133068009
W(HF) =      0.778911371
------------------------------------------------------------------------------
                           ORCA POPULATION ANALYSIS
------------------------------------------------------------------------------
Input electron density              ... orca.mdcip
BaseName (.gbw .S,...)              ... orca


------------------------------------------------------------------------------- 
                                     TIMINGS                                   
------------------------------------------------------------------------------- 


Total execution time                   ...        0.221 sec

Fock Matrix Formation                  ...        0.010 sec (  4.5%)
Initial Guess                          ...        0.000 sec (  0.0%)
DIIS Solver                            ...        0.000 sec (  0.2%)
State Vector Update                    ...        0.000 sec (  0.0%)
Sigma-vector construction              ...        0.019 sec (  8.5%)
  <D|H|D>(4-ext)                       ...        0.015 sec ( 80.5% of sigma)
  <S|H|D>(3-ext)                       ...        0.001 sec (  5.5% of sigma)


-------------------------   --------------------
FINAL SINGLE POINT ENERGY        -1.020894275845
-------------------------   --------------------

Storing actual gbw-file in orca.033.gbw ... done

                            ***************************************
                            *     ORCA property calculations      *
                            ***************************************

                                    ---------------------
                                    Active property flags
                                    ---------------------
   (+) Dipole Moment


------------------------------------------------------------------------------
                       ORCA ELECTRIC PROPERTIES CALCULATION
------------------------------------------------------------------------------

Dipole Moment Calculation                       ... on
Quadrupole Moment Calculation                   ... off
Polarizability Calculation                      ... off
GBWName                                         ... orca.gbw
Electron density file                           ... orca.scfp
The origin for moment calculation is the CENTER OF MASS  = ( 1.889726,  0.000000  0.000000)

-------------
DIPOLE MOMENT
-------------
                                X             Y             Z
Electronic contribution:      0.00000       0.00000       0.00000
Nuclear contribution   :      0.00000       0.00000       0.00000
                        -----------------------------------------
Total Dipole Moment    :      0.00000       0.00000       0.00000
                        -----------------------------------------
Magnitude (a.u.)       :      0.00000
Magnitude (Debye)      :      0.00000



--------------------
Rotational spectrum 
--------------------
 
Rotational constants in cm-1:     0.000000     8.361927     8.361927 
Rotational constants in MHz :     0.000000 250684.265719 250684.265719 

 Dipole components along the rotational axes: 
x,y,z [a.u.] :     0.000000     0.000000     0.000000 
x,y,z [Debye]:     0.000000     0.000000     0.000000 

 

                           *** MDCI DENSITY ***

------------------------------------------------------------------------------
                       ORCA ELECTRIC PROPERTIES CALCULATION
------------------------------------------------------------------------------

Dipole Moment Calculation                       ... on
Quadrupole Moment Calculation                   ... off
Polarizability Calculation                      ... off
GBWName                                         ... orca.gbw
Electron density file                           ... orca.mdcip
The origin for moment calculation is the CENTER OF MASS  = ( 1.889726,  0.000000  0.000000)

-------------
DIPOLE MOMENT
-------------
                                X             Y             Z
Electronic contribution:      0.00000       0.00000      -0.00000
Nuclear contribution   :      0.00000       0.00000       0.00000
                        -----------------------------------------
Total Dipole Moment    :      0.00000       0.00000      -0.00000
                        -----------------------------------------
Magnitude (a.u.)       :      0.00000
Magnitude (Debye)      :      0.00000



--------------------
Rotational spectrum 
--------------------
 
Rotational constants in cm-1:     0.000000     8.361927     8.361927 
Rotational constants in MHz :     0.000000 250684.265719 250684.265719 

 Dipole components along the rotational axes: 
x,y,z [a.u.] :     0.000000     0.000000    -0.000000 
x,y,z [Debye]:     0.000000     0.000000    -0.000000 

 
                              **** TRAJECTORY DONE ***

                         SUMMARY OF THE CALCULATED SURFACE

------------------
TRAJECTORY RESULTS
------------------

Column   1: R

The Calculated Surface using the 'Actual Energy'
   0.40000000  -0.97891264
   0.45000000  -1.05276328
   0.50000000  -1.10177156
   0.55000000  -1.13378873
   0.60000000  -1.15392140
   0.65000000  -1.16561091
   0.70000000  -1.17124065
   0.75000000  -1.17249515
   0.80000000  -1.17058528
   0.85000000  -1.16639589
   0.90000000  -1.16058412
   0.95000000  -1.15364422
   1.00000000  -1.14595129
   1.05000000  -1.13778514
   1.10000000  -1.12936252
   1.15000000  -1.12084940
   1.20000000  -1.11237452
   1.25000000  -1.10403813
   1.30000000  -1.09591833
   1.35000000  -1.08807574
   1.40000000  -1.08055692
   1.45000000  -1.07339689
   1.50000000  -1.06662100
   1.55000000  -1.06024901
   1.60000000  -1.05428586
   1.65000000  -1.04873779
   1.70000000  -1.04360340
   1.75000000  -1.03887669
   1.80000000  -1.03454763
   1.85000000  -1.03060265
   1.90000000  -1.02702515
   1.95000000  -1.02379602
   2.00000000  -1.02089428

                        *******************************
                        *   FIT OF THE ACT-ENERGY PES *
                        *******************************
-------------------------------
POTENTIAL ENERGY SURFACE =   0
-------------------------------

Minimum found after 10 iterations
Equilibrium distance and its energy from the interpolated PES:
  Re      =   0.74223 Angstroem  (  1.40262 Bohr)
  E(Re)   =    -1.172534 Eh 
  dE/dR   = 1.545e-10 (1.348e-02 CHEB)
  d2E/dR2 =    0.369264 (   0.399991 CHEB) (   0.480526 NUM)
  d3E/dR3 =   -1.387187 (  27.989805 CHEB)

Spectroscopic constants:
  we =    4417.6 cm**-1 (based on SPLINE)
  we =    4597.7 cm**-1 (based on CHEB)
  we =    5039.4 cm**-1 (based on NUM)

Performing Morse fit ...
Morse-Fit Results:
 Te(adiabatic)   = 5095937.4 cm**-1         =631.816 eV
 d2E/dR**2 (Morse)= -10178.712014897 
 d3E/dR**3 (Morse)= 452803.716322115 
 d4E/dR**4 (Morse)= -15666885.473059168 
 E0               =     22.046265232 Eh  RMS=1.01e-01
 Re               =   0.18846 Angstroem      =  0.35613 Bohr RMS=8.67e-04)
 De(Morse)        = -629.82755 eV             =-5079902.3 cm**-1 RMS=1.01e-01
 D0(Morse)        =      -nan eV
 beta             =  14.82845 au          RMS=4.18e-02
 we               =     -nan cm**-1
 wexe             =  26459.1 cm**-1
 Displacement   =   -0.5538 Angstroem      = -1.04648 Bohr

The Calculated Surface using the SCF energy
   0.40000000  -0.94120445
   0.45000000  -1.01501254
   0.50000000  -1.06390950
   0.55000000  -1.09574417
   0.60000000  -1.11561786
   0.65000000  -1.12696681
   0.70000000  -1.13216912
   0.75000000  -1.13290417
   0.80000000  -1.13037795
   0.85000000  -1.12546990
   0.90000000  -1.11883038
   0.95000000  -1.11094603
   1.00000000  -1.10218422
   1.05000000  -1.09282405
   1.10000000  -1.08307842
   1.15000000  -1.07311014
   1.20000000  -1.06304385
   1.25000000  -1.05297502
   1.30000000  -1.04297667
   1.35000000  -1.03310457
   1.40000000  -1.02340111
   1.45000000  -1.01389830
   1.50000000  -1.00461993
   1.55000000  -0.99558330
   1.60000000  -0.98680047
   1.65000000  -0.97827921
   1.70000000  -0.97002382
   1.75000000  -0.96203571
   1.80000000  -0.95431399
   1.85000000  -0.94685599
   1.90000000  -0.93965765
   1.95000000  -0.93271397
   2.00000000  -0.92601923

                        *******************************
                        *       FIT OF THE SCF PES    *
                        *******************************
-------------------------------
POTENTIAL ENERGY SURFACE =   0
-------------------------------

Minimum found after 12 iterations
Equilibrium distance and its energy from the interpolated PES:
  Re      =   0.73431 Angstroem  (  1.38765 Bohr)
  E(Re)   =    -1.133074 Eh 
  dE/dR   = -2.372e-10 (1.308e-02 CHEB)
  d2E/dR2 =    0.400706 (   0.435224 CHEB) (   0.514527 NUM)
  d3E/dR3 =   -1.381423 (  29.472762 CHEB)

Spectroscopic constants:
  we =    4601.9 cm**-1 (based on SPLINE)
  we =    4796.0 cm**-1 (based on CHEB)
  we =    5214.6 cm**-1 (based on NUM)

Performing Morse fit ...
Morse-Fit Results:
 Te(adiabatic)   = 4709438.4 cm**-1         =583.896 eV
 d2E/dR**2 (Morse)= -17188.808870258 
 d3E/dR**3 (Morse)= 1034187.925447359 
 d4E/dR**4 (Morse)= -48395911.500704460 
 E0               =     20.324705840 Eh  RMS=6.19e-02
 Re               =   0.24082 Angstroem      =  0.45508 Bohr RMS=5.44e-04)
 De(Morse)        = -581.43552 eV             =-4689594.2 cm**-1 RMS=6.19e-02
 D0(Morse)        =      -nan eV
 beta             =  20.05545 au          RMS=4.32e-02
 we               =     -nan cm**-1
 wexe             =  48400.3 cm**-1
 Displacement   =   -0.4935 Angstroem      = -0.93256 Bohr

The Calculated Surface using the MDCI energy
   0.40000000  -0.97891264
   0.45000000  -1.05276328
   0.50000000  -1.10177156
   0.55000000  -1.13378873
   0.60000000  -1.15392140
   0.65000000  -1.16561091
   0.70000000  -1.17124065
   0.75000000  -1.17249515
   0.80000000  -1.17058528
   0.85000000  -1.16639589
   0.90000000  -1.16058412
   0.95000000  -1.15364422
   1.00000000  -1.14595129
   1.05000000  -1.13778514
   1.10000000  -1.12936252
   1.15000000  -1.12084940
   1.20000000  -1.11237452
   1.25000000  -1.10403813
   1.30000000  -1.09591833
   1.35000000  -1.08807574
   1.40000000  -1.08055692
   1.45000000  -1.07339689
   1.50000000  -1.06662100
   1.55000000  -1.06024901
   1.60000000  -1.05428586
   1.65000000  -1.04873779
   1.70000000  -1.04360340
   1.75000000  -1.03887669
   1.80000000  -1.03454763
   1.85000000  -1.03060265
   1.90000000  -1.02702515
   1.95000000  -1.02379602
   2.00000000  -1.02089428

                        *******************************
                        *      FIT OF THE MDCI PES    *
                        *******************************
-------------------------------
POTENTIAL ENERGY SURFACE =   0
-------------------------------

Minimum found after 10 iterations
Equilibrium distance and its energy from the interpolated PES:
  Re      =   0.74223 Angstroem  (  1.40262 Bohr)
  E(Re)   =    -1.172534 Eh 
  dE/dR   = 1.545e-10 (1.348e-02 CHEB)
  d2E/dR2 =    0.369264 (   0.399991 CHEB) (   0.480526 NUM)
  d3E/dR3 =   -1.387187 (  27.989805 CHEB)

Spectroscopic constants:
  we =    4417.6 cm**-1 (based on SPLINE)
  we =    4597.7 cm**-1 (based on CHEB)
  we =    5039.4 cm**-1 (based on NUM)

Performing Morse fit ...
Morse-Fit Results:
 Te(adiabatic)   = 5095937.4 cm**-1         =631.816 eV
 d2E/dR**2 (Morse)= -10178.712014897 
 d3E/dR**3 (Morse)= 452803.716322115 
 d4E/dR**4 (Morse)= -15666885.473059168 
 E0               =     22.046265232 Eh  RMS=1.01e-01
 Re               =   0.18846 Angstroem      =  0.35613 Bohr RMS=8.67e-04)
 De(Morse)        = -629.82755 eV             =-5079902.3 cm**-1 RMS=1.01e-01
 D0(Morse)        =      -nan eV
 beta             =  14.82845 au          RMS=4.18e-02
 we               =     -nan cm**-1
 wexe             =  26459.1 cm**-1
 Displacement   =   -0.5538 Angstroem      = -1.04648 Bohr


Timings for individual modules:

Sum of individual times         ...       50.028 sec (=   0.834 min)
GTO integral calculation        ...        8.657 sec (=   0.144 min)  17.3 %
SCF iterations                  ...       24.812 sec (=   0.414 min)  49.6 %
MDCI module                     ...       16.559 sec (=   0.276 min)  33.1 %
                             ****ORCA TERMINATED NORMALLY****
TOTAL RUN TIME: 0 days 0 hours 0 minutes 56 seconds 582 msec
