
                                 *****************
                                 * O   R   C   A *
                                 *****************

           --- An Ab Initio, DFT and Semiempirical electronic structure package ---

                  #######################################################
                  #                        -***-                        #
                  #          Department of theory and spectroscopy      #
                  #               Directorship: Frank Neese             #
                  #        Max Planck Institute fuer Kohlenforschung    #
                  #                Kaiser Wilhelm Platz 1               #
                  #                 D-45470 Muelheim/Ruhr               #
                  #                      Germany                        #
                  #                                                     #
                  #                  All rights reserved                #
                  #                        -***-                        #
                  #######################################################


                         Program Version 4.2.1 -  RELEASE  -


 With contributions from (in alphabetic order):
   Daniel Aravena         : Magnetic Suceptibility
   Michael Atanasov       : Ab Initio Ligand Field Theory (pilot matlab implementation)
   Alexander A. Auer      : GIAO ZORA, VPT2
   Ute Becker             : Parallelization
   Giovanni Bistoni       : ED, misc. LED, open-shell LED, HFLD
   Martin Brehm           : Molecular dynamics
   Dmytro Bykov           : SCF Hessian
   Vijay G. Chilkuri      : MRCI spin determinant printing, contributions to CSF-ICE
   Dipayan Datta          : RHF DLPNO-CCSD density
   Achintya Kumar Dutta   : EOM-CC, STEOM-CC
   Dmitry Ganyushin       : Spin-Orbit,Spin-Spin,Magnetic field MRCI
   Miquel Garcia          : C-PCM Hessian, Gaussian charge scheme
   Yang Guo               : DLPNO-NEVPT2, CIM, IAO-localization
   Andreas Hansen         : Spin unrestricted coupled pair/coupled cluster methods
   Benjamin Helmich-Paris : CASSCF linear response (MC-RPA)
   Lee Huntington         : MR-EOM, pCC
   Robert Izsak           : Overlap fitted RIJCOSX, COSX-SCS-MP3, EOM
   Christian Kollmar      : KDIIS, OOCD, Brueckner-CCSD(T), CCSD density
   Simone Kossmann        : Meta GGA functionals, TD-DFT gradient, OOMP2, MP2 Hessian
   Martin Krupicka        : AUTO-CI
   Lucas Lang             : DCDCAS
   Dagmar Lenk            : GEPOL surface, SMD
   Dimitrios Liakos       : Extrapolation schemes; Compound Job, initial MDCI parallelization
   Dimitrios Manganas     : Further ROCIS development; embedding schemes
   Dimitrios Pantazis     : SARC Basis sets
   Taras Petrenko         : DFT Hessian,TD-DFT gradient, ASA, ECA, R-Raman, ABS, FL, XAS/XES, NRVS
   Peter Pinski           : DLPNO-MP2, DLPNO-MP2 Gradient
   Christoph Reimann      : Effective Core Potentials
   Marius Retegan         : Local ZFS, SOC
   Christoph Riplinger    : Optimizer, TS searches, QM/MM, DLPNO-CCSD(T), (RO)-DLPNO pert. Triples
   Tobias Risthaus        : Range-separated hybrids, TD-DFT gradient, RPA, STAB
   Michael Roemelt        : Original ROCIS implementation
   Masaaki Saitow         : Open-shell DLPNO-CCSD energy and density
   Barbara Sandhoefer     : DKH picture change effects
   Avijit Sen             : IP-ROCIS
   Kantharuban Sivalingam : CASSCF convergence, NEVPT2, FIC-MRCI
   Bernardo de Souza      : ESD, SOC TD-DFT
   Georgi Stoychev        : AutoAux, RI-MP2 NMR
   Willem Van den Heuvel  : Paramagnetic NMR
   Boris Wezisla          : Elementary symmetry handling
   Frank Wennmohs         : Technical directorship


 We gratefully acknowledge several colleagues who have allowed us to
 interface, adapt or use parts of their codes:
   Stefan Grimme, W. Hujo, H. Kruse,             : VdW corrections, initial TS optimization,
                  C. Bannwarth                     DFT functionals, gCP, sTDA/sTD-DF
   Ed Valeev, F. Pavosevic, A. Kumar             : LibInt (2-el integral package), F12 methods
   Garnet Chan, S. Sharma, J. Yang, R. Olivares  : DMRG
   Ulf Ekstrom                                   : XCFun DFT Library
   Mihaly Kallay                                 : mrcc  (arbitrary order and MRCC methods)
   Andreas Klamt, Michael Diedenhofen            : otool_cosmo (COSMO solvation model)
   Jiri Pittner, Ondrej Demel                    : Mk-CCSD
   Frank Weinhold                                : gennbo (NPA and NBO analysis)
   Christopher J. Cramer and Donald G. Truhlar   : smd solvation model
   Lars Goerigk                                  : TD-DFT with DH, B97 family of functionals
   V. Asgeirsson, H. Jonsson                     : NEB implementation
   FAccTs GmbH                                   : IRC, NEB, NEB-TS, Multilevel, MM, QM/MM, CI optimization
   S Lehtola, MJT Oliveira, MAL Marques          : LibXC Library


 Your calculation uses the libint2 library for the computation of 2-el integrals
 For citations please refer to: http://libint.valeyev.net

 Your ORCA version has been built with support for libXC version: 4.2.3
 For citations please refer to: https://tddft.org/programs/libxc/

 This ORCA versions uses:
   CBLAS   interface :  Fast vector & matrix operations
   LAPACKE interface :  Fast linear algebra routines
   SCALAPACK package :  Parallel linear algebra routines


----- Orbital basis set information -----
Your calculation utilizes the basis: 6-311G**
   H, Li - Ne  : R. Krishnan, J. S. Binkley, R. Seeger and J. A. Pople, J. Chem. Phys. 72, 650 (1980).
   Na - Ar     : A. D. McLean and G. S. Chandler J. Chem. Phys. 72, 5639, (1980).
   K  - Ca     : J.-P. Blaudeau, M. P. McGrath, L. A. Curtiss and L. Radom, J. Chem. Phys. 107, 5016 (1997).
   Ga - Kr     : L. A. Curtiss, M. P. McGrath, J.-P. Blandeau, N. E. Davis, R. C. Binning and L. Radom, J. Chem. Phys. 103, 6104 (1995).
   Pol./Diff.
   H, Li - Cl  : T. Clark, J. Chandrasekhar and P. v. R. Schleyer, J. Comp. Chem. 4, 294 (1983).
   H - Ne      : M. J. Frisch, J. A. Pople and J. S. Binkley, J. Chem. Phys. 80, 3265 (1984).

================================================================================
                                        WARNINGS
                       Please study these warnings very carefully!
================================================================================


WARNING: Geometry Optimization
  ===> : Switching off AutoStart
         For restart on a previous wavefunction, please use MOREAD

INFO   : the flag for use of LIBINT has been found!

================================================================================
                                       INPUT FILE
================================================================================
NAME = orca.inp
|  1> !B3LYP 6-311G** OPT
|  2> 
|  3> ! FREQ
|  4> ! nofrozencore
|  5> 
|  6> %method
|  7>   Z_Tol 1e-14
|  8> end
|  9> 
| 10> *xyz 0 1
| 11> C    -1.807928482    0.000000000    -0.903964241
| 12> H    -1.277494536    -0.951333822    -0.827774210
| 13> H    -1.091380797    0.821859802    -0.846457593
| 14> H    -2.524476167    0.083844265    -0.084372460
| 15> H    -2.338362427    0.045629756    -1.857252701
| 16> **                         ****END OF INPUT****
================================================================================

                       *****************************
                       * Geometry Optimization Run *
                       *****************************

Geometry optimization settings:
Update method            Update   .... BFGS
Choice of coordinates    CoordSys .... Z-matrix Internals
Initial Hessian          InHess   .... Almoef's Model

Convergence Tolerances:
Energy Change            TolE     ....  5.0000e-06 Eh
Max. Gradient            TolMAXG  ....  3.0000e-04 Eh/bohr
RMS Gradient             TolRMSG  ....  1.0000e-04 Eh/bohr
Max. Displacement        TolMAXD  ....  4.0000e-03 bohr
RMS Displacement         TolRMSD  ....  2.0000e-03 bohr
Strict Convergence                ....  False
------------------------------------------------------------------------------
                        ORCA OPTIMIZATION COORDINATE SETUP
------------------------------------------------------------------------------

The optimization will be done in new redundant internal coordinates
Making redundant internal coordinates   ...  (new redundants) done
Evaluating the initial hessian          ...  (Almloef) done
Evaluating the coordinates              ...  done
Calculating the B-matrix                .... done
Calculating the G-matrix                .... done
Diagonalizing the G-matrix              .... done
The first mode is                       ....    1
The number of degrees of freedom        ....    9

    -----------------------------------------------------------------
                    Redundant Internal Coordinates


    -----------------------------------------------------------------
         Definition                    Initial Value    Approx d2E/dq
    -----------------------------------------------------------------
      1. B(H   1,C   0)                  1.0919         0.357622   
      2. B(H   2,C   0)                  1.0919         0.357622   
      3. B(H   3,C   0)                  1.0919         0.357622   
      4. B(H   4,C   0)                  1.0919         0.357622   
      5. A(H   1,C   0,H   3)          109.4712         0.290210   
      6. A(H   2,C   0,H   3)          109.4712         0.290210   
      7. A(H   1,C   0,H   4)          109.4712         0.290210   
      8. A(H   2,C   0,H   4)          109.4712         0.290210   
      9. A(H   3,C   0,H   4)          109.4712         0.290210   
     10. A(H   1,C   0,H   2)          109.4712         0.290210   
    -----------------------------------------------------------------

Number of atoms                         .... 5
Number of degrees of freedom            .... 10

         *************************************************************
         *                GEOMETRY OPTIMIZATION CYCLE   1            *
         *************************************************************
---------------------------------
CARTESIAN COORDINATES (ANGSTROEM)
---------------------------------
  C     -1.807928    0.000000   -0.903964
  H     -1.277495   -0.951334   -0.827774
  H     -1.091381    0.821860   -0.846458
  H     -2.524476    0.083844   -0.084372
  H     -2.338362    0.045630   -1.857253

----------------------------
CARTESIAN COORDINATES (A.U.)
----------------------------
  NO LB      ZA    FRAG     MASS         X           Y           Z
   0 C     6.0000    0    12.011   -3.416490    0.000000   -1.708245
   1 H     1.0000    0     1.008   -2.414115   -1.797760   -1.564267
   2 H     1.0000    0     1.008   -2.062411    1.553090   -1.599573
   3 H     1.0000    0     1.008   -4.770569    0.158443   -0.159441
   4 H     1.0000    0     1.008   -4.418865    0.086228   -3.509699

--------------------------------
INTERNAL COORDINATES (ANGSTROEM)
--------------------------------
 C      0   0   0     0.000000000000     0.00000000     0.00000000
 H      1   0   0     1.091879632915     0.00000000     0.00000000
 H      1   2   0     1.091879633287   109.47122061     0.00000000
 H      1   2   3     1.091879633080   109.47122065   240.00000001
 H      1   2   3     1.091879632840   109.47122066   119.99999996

---------------------------
INTERNAL COORDINATES (A.U.)
---------------------------
 C      0   0   0     0.000000000000     0.00000000     0.00000000
 H      1   0   0     2.063353477415     0.00000000     0.00000000
 H      1   2   0     2.063353478118   109.47122061     0.00000000
 H      1   2   3     2.063353477728   109.47122065   240.00000001
 H      1   2   3     2.063353477273   109.47122066   119.99999996

---------------------
BASIS SET INFORMATION
---------------------
There are 2 groups of distinct atoms

 Group   1 Type C   : 11s5p1d contracted to 4s3p1d pattern {6311/311/1}
 Group   2 Type H   : 5s1p contracted to 3s1p pattern {311/1}

Atom   0C    basis set group =>   1
Atom   1H    basis set group =>   2
Atom   2H    basis set group =>   2
Atom   3H    basis set group =>   2
Atom   4H    basis set group =>   2
------------------------------------------------------------------------------
                           ORCA GTO INTEGRAL CALCULATION
------------------------------------------------------------------------------

                         BASIS SET STATISTICS AND STARTUP INFO

 # of primitive gaussian shells          ...   41
 # of primitive gaussian functions       ...   63
 # of contracted shells                  ...   24
 # of contracted basis functions         ...   42
 Highest angular momentum                ...    2
 Maximum contraction depth               ...    6
 Integral package used                   ... LIBINT
 Integral threshhold            Thresh   ...  2.500e-11
 Primitive cut-off              TCut     ...  2.500e-12


------------------------------ INTEGRAL EVALUATION ----------------------------


 * One electron integrals 
 Pre-screening matrix                    ... done
 Shell pair data                         ... done (   0.000 sec)

-------------------------------------------------------------------------------
                                 ORCA SCF
-------------------------------------------------------------------------------

------------
SCF SETTINGS
------------
Hamiltonian:
 Density Functional     Method          .... DFT(GTOs)
 Exchange Functional    Exchange        .... B88
   X-Alpha parameter    XAlpha          ....  0.666667
   Becke's b parameter  XBeta           ....  0.004200
 Correlation Functional Correlation     .... LYP
 LDA part of GGA corr.  LDAOpt          .... VWN-5
 Gradients option       PostSCFGGA      .... off
 Hybrid DFT is turned on
   Fraction HF Exchange ScalHFX         ....  0.200000
   Scaling of DF-GGA-X  ScalDFX         ....  0.720000
   Scaling of DF-GGA-C  ScalDFC         ....  0.810000
   Scaling of DF-LDA-C  ScalLDAC        ....  1.000000
   Perturbative correction              ....  0.000000
   Density functional embedding theory  .... OFF
   NL short-range parameter             ....  4.800000


General Settings:
 Integral files         IntName         .... orca
 Hartree-Fock type      HFTyp           .... RHF
 Total Charge           Charge          ....    0
 Multiplicity           Mult            ....    1
 Number of Electrons    NEL             ....   10
 Basis Dimension        Dim             ....   42
 Nuclear Repulsion      ENuc            ....     13.4122606302 Eh

Convergence Acceleration:
 DIIS                   CNVDIIS         .... on
   Start iteration      DIISMaxIt       ....    12
   Startup error        DIISStart       ....  0.200000
   # of expansion vecs  DIISMaxEq       ....     5
   Bias factor          DIISBfac        ....   1.050
   Max. coefficient     DIISMaxC        ....  10.000
 Newton-Raphson         CNVNR           .... off
 SOSCF                  CNVSOSCF        .... on
   Start iteration      SOSCFMaxIt      ....   150
   Startup grad/error   SOSCFStart      ....  0.003300
 Level Shifting         CNVShift        .... on
   Level shift para.    LevelShift      ....    0.2500
   Turn off err/grad.   ShiftErr        ....    0.0010
 Zerner damping         CNVZerner       .... off
 Static damping         CNVDamp         .... on
   Fraction old density DampFac         ....    0.7000
   Max. Damping (<1)    DampMax         ....    0.9800
   Min. Damping (>=0)   DampMin         ....    0.0000
   Turn off err/grad.   DampErr         ....    0.1000
 Fernandez-Rico         CNVRico         .... off

SCF Procedure:
 Maximum # iterations   MaxIter         ....   125
 SCF integral mode      SCFMode         .... Direct
   Integral package                     .... LIBINT
 Reset frequency        DirectResetFreq ....    20
 Integral Threshold     Thresh          ....  2.500e-11 Eh
 Primitive CutOff       TCut            ....  2.500e-12 Eh

Convergence Tolerance:
 Convergence Check Mode ConvCheckMode   .... Total+1el-Energy
 Convergence forced     ConvForced      .... 0
 Energy Change          TolE            ....  1.000e-08 Eh
 1-El. energy change                    ....  1.000e-05 Eh
 Orbital Gradient       TolG            ....  1.000e-05
 Orbital Rotation angle TolX            ....  1.000e-05
 DIIS Error             TolErr          ....  5.000e-07


Diagonalization of the overlap matrix:
Smallest eigenvalue                        ... 1.291e-02
Time for diagonalization                   ...    0.063 sec
Threshold for overlap eigenvalues          ... 1.000e-08
Number of eigenvalues below threshold      ... 0
Time for construction of square roots      ...    0.000 sec
Total time needed                          ...    0.064 sec

-------------------
DFT GRID GENERATION
-------------------

General Integration Accuracy     IntAcc      ...  4.340
Radial Grid Type                 RadialGrid  ... Gauss-Chebyshev
Angular Grid (max. acc.)         AngularGrid ... Lebedev-110
Angular grid pruning method      GridPruning ... 3 (G Style)
Weight generation scheme         WeightScheme... Becke
Basis function cutoff            BFCut       ...    1.0000e-11
Integration weight cutoff        WCut        ...    1.0000e-14
Grids for H and He will be reduced by one unit

# of grid points (after initial pruning)     ...   4832 (   0.0 sec)
# of grid points (after weights+screening)   ...   4692 (   0.0 sec)
nearest neighbour list constructed           ...    0.0 sec
Grid point re-assignment to atoms done       ...    0.0 sec
Grid point division into batches done        ...    0.0 sec
Reduced shell lists constructed in    0.0 sec

Total number of grid points                  ...     4692
Total number of batches                      ...       76
Average number of points per batch           ...       61
Average number of grid points per atom       ...      938
Average number of shells per batch           ...    22.35 (93.13%)
Average number of basis functions per batch  ...    39.16 (93.23%)
Average number of large shells per batch     ...    21.08 (94.31%)
Average number of large basis fcns per batch ...    36.92 (94.30%)
Maximum spatial batch extension              ...  21.59, 23.60, 23.60 au
Average spatial batch extension              ...   5.64,  5.21,  5.42 au

Time for grid setup =    0.020 sec

------------------------------
INITIAL GUESS: MODEL POTENTIAL
------------------------------
Loading Hartree-Fock densities                     ... done
Calculating cut-offs                               ... done
Setting up the integral package                    ... done
Initializing the effective Hamiltonian             ... done
Starting the Coulomb interaction                   ... done (   0.0 sec)
Reading the grid                                   ... done
Mapping shells                                     ... done
Starting the XC term evaluation                    ... done (   0.0 sec)
  promolecular density results
     # of electrons  =      9.998021369
     EX              =     -6.306136063
     EC              =     -0.288471052
     EX+EC           =     -6.594607115
Transforming the Hamiltonian                       ... done (   0.0 sec)
Diagonalizing the Hamiltonian                      ... done (   0.0 sec)
Back transforming the eigenvectors                 ... done (   0.0 sec)
Now organizing SCF variables                       ... done
                      ------------------
                      INITIAL GUESS DONE (   0.1 sec)
                      ------------------
--------------
SCF ITERATIONS
--------------
ITER       Energy         Delta-E        Max-DP      RMS-DP      [F,P]     Damp
               ***  Starting incremental Fock matrix formation  ***
  0    -40.4137234981   0.000000000000 0.07581021  0.00307192  0.2512088 0.7000
  1    -40.4536944750  -0.039970976853 0.04567261  0.00218796  0.1246435 0.7000
                               ***Turning on DIIS***
  2    -40.4695500898  -0.015855614791 0.06112555  0.00358479  0.0429354 0.0000
  3    -40.4901570780  -0.020606988202 0.03057317  0.00140935  0.0715334 0.0000
  4    -40.4972871218  -0.007130043796 0.00569145  0.00047523  0.0173721 0.0000
  5    -40.4977855898  -0.000498468034 0.00159803  0.00017301  0.0040035 0.0000
                      *** Initiating the SOSCF procedure ***
                           *** Shutting down DIIS ***
                      *** Re-Reading the Fockian *** 
                      *** Removing any level shift *** 
ITER      Energy       Delta-E        Grad      Rot      Max-DP    RMS-DP
  6    -40.49781823  -0.0000326452  0.000381  0.000381  0.000858  0.000095
               *** Restarting incremental Fock matrix formation ***
  7    -40.49782070  -0.0000024672  0.000058  0.000063  0.000181  0.000007
  8    -40.49782070   0.0000000055  0.000060  0.000043  0.000078  0.000004
                  ***Gradient check signals convergence***
              ***Rediagonalizing the Fockian in SOSCF/NRSCF***

               *****************************************************
               *                     SUCCESS                       *
               *           SCF CONVERGED AFTER   9 CYCLES          *
               *****************************************************

Setting up the final grid:

General Integration Accuracy     IntAcc      ...  4.670
Radial Grid Type                 RadialGrid  ... Gauss-Chebyshev
Angular Grid (max. acc.)         AngularGrid ... Lebedev-302
Angular grid pruning method      GridPruning ... 3 (G Style)
Weight generation scheme         WeightScheme... Becke
Basis function cutoff            BFCut       ...    1.0000e-11
Integration weight cutoff        WCut        ...    1.0000e-14
Grids for H and He will be reduced by one unit

# of grid points (after initial pruning)     ...  19788 (   0.0 sec)
# of grid points (after weights+screening)   ...  19293 (   0.0 sec)
nearest neighbour list constructed           ...    0.0 sec
Grid point re-assignment to atoms done       ...    0.0 sec
Grid point division into batches done        ...    0.1 sec
Reduced shell lists constructed in    0.1 sec

Total number of grid points                  ...    19293
Total number of batches                      ...      303
Average number of points per batch           ...       63
Average number of grid points per atom       ...     3859
Average number of shells per batch           ...    20.77 (86.53%)
Average number of basis functions per batch  ...    36.25 (86.32%)
Average number of large shells per batch     ...    19.06 (91.78%)
Average number of large basis fcns per batch ...    33.46 (92.30%)
Maximum spatial batch extension              ...  19.04, 20.64, 20.64 au
Average spatial batch extension              ...   3.31,  3.15,  3.14 au

Final grid set up in    0.1 sec
Final integration                            ... done (   0.1 sec)
Change in XC energy                          ...     0.000055007
Integrated number of electrons               ...     9.999994386
Previous integrated no of electrons          ...    10.000609323

----------------
TOTAL SCF ENERGY
----------------

Total Energy       :          -40.49776572 Eh           -1102.00023 eV

Components:
Nuclear Repulsion  :           13.41226063 Eh             364.96617 eV
Electronic Energy  :          -53.91002635 Eh           -1466.96640 eV
One Electron Energy:          -79.79743996 Eh           -2171.39873 eV
Two Electron Energy:           25.88741361 Eh             704.43234 eV

Virial components:
Potential Energy   :          -80.77437032 Eh           -2197.98236 eV
Kinetic Energy     :           40.27660460 Eh            1095.98213 eV
Virial Ratio       :            2.00549106


DFT components:
N(Alpha)           :        4.999997192902 electrons
N(Beta)            :        4.999997192902 electrons
N(Total)           :        9.999994385805 electrons
E(X)               :       -5.206427490709 Eh       
E(C)               :       -0.351283143570 Eh       
E(XC)              :       -5.557710634279 Eh       
DFET-embed. en.    :        0.000000000000 Eh       

---------------
SCF CONVERGENCE
---------------

  Last Energy change         ...   -2.9044e-08  Tolerance :   1.0000e-08
  Last MAX-Density change    ...    1.8573e-06  Tolerance :   1.0000e-07
  Last RMS-Density change    ...    1.6113e-07  Tolerance :   5.0000e-09
  Last Orbital Gradient      ...    1.2693e-06  Tolerance :   1.0000e-05
  Last Orbital Rotation      ...    9.5082e-07  Tolerance :   1.0000e-05

             **** THE GBW FILE WAS UPDATED (orca.gbw) ****
             **** DENSITY FILE WAS UPDATED (orca.scfp) ****
             **** ENERGY FILE WAS UPDATED (orca.en.tmp) ****
             **** THE GBW FILE WAS UPDATED (orca.gbw) ****
             **** DENSITY FILE WAS UPDATED (orca.scfp) ****
----------------
ORBITAL ENERGIES
----------------

  NO   OCC          E(Eh)            E(eV) 
   0   2.0000     -10.149304      -276.1766 
   1   2.0000      -0.692481       -18.8434 
   2   2.0000      -0.391525       -10.6539 
   3   2.0000      -0.391411       -10.6508 
   4   2.0000      -0.391377       -10.6499 
   5   0.0000       0.055904         1.5212 
   6   0.0000       0.125982         3.4281 
   7   0.0000       0.126682         3.4472 
   8   0.0000       0.127780         3.4771 
   9   0.0000       0.280317         7.6278 
  10   0.0000       0.281180         7.6513 
  11   0.0000       0.285270         7.7626 
  12   0.0000       0.544684        14.8216 
  13   0.0000       0.592571        16.1247 
  14   0.0000       0.594008        16.1638 
  15   0.0000       0.594646        16.1812 
  16   0.0000       0.748443        20.3662 
  17   0.0000       0.967682        26.3320 
  18   0.0000       0.968181        26.3456 
  19   0.0000       1.456977        39.6464 
  20   0.0000       1.457306        39.6553 
  21   0.0000       1.457508        39.6608 
  22   0.0000       1.462744        39.8033 
  23   0.0000       1.462781        39.8043 
  24   0.0000       1.464914        39.8623 
  25   0.0000       1.891041        51.4578 
  26   0.0000       1.891977        51.4833 
  27   0.0000       1.892254        51.4909 
  28   0.0000       2.174496        59.1710 
  29   0.0000       2.315684        63.0130 
  30   0.0000       2.316478        63.0346 
  31   0.0000       2.401148        65.3386 
  32   0.0000       2.401378        65.3448 
  33   0.0000       2.401464        65.3472 
  34   0.0000       2.522930        68.6524 
  35   0.0000       2.523150        68.6584 
  36   0.0000       2.523321        68.6631 
  37   0.0000       2.869694        78.0883 
  38   0.0000       3.787148       103.0535 
  39   0.0000       3.787797       103.0712 
  40   0.0000       3.788862       103.1002 
  41   0.0000      23.988748       652.7670 

                    ********************************
                    * MULLIKEN POPULATION ANALYSIS *
                    ********************************

-----------------------
MULLIKEN ATOMIC CHARGES
-----------------------
   0 C :   -0.428443
   1 H :    0.106788
   2 H :    0.107437
   3 H :    0.107455
   4 H :    0.106763
Sum of atomic charges:   -0.0000000

--------------------------------
MULLIKEN REDUCED ORBITAL CHARGES
--------------------------------
  0 C s       :     3.216993  s :     3.216993
      pz      :     1.059565  p :     3.179348
      px      :     1.060202
      py      :     1.059582
      dz2     :     0.008141  d :     0.032101
      dxz     :     0.010264
      dyz     :     0.000237
      dx2y2   :     0.003164
      dxy     :     0.010296
  1 H s       :     0.870108  s :     0.870108
      pz      :     0.005333  p :     0.023104
      px      :     0.006972
      py      :     0.010799
  2 H s       :     0.869284  s :     0.869284
      pz      :     0.005321  p :     0.023278
      px      :     0.008423
      py      :     0.009534
  3 H s       :     0.869281  s :     0.869281
      pz      :     0.009509  p :     0.023265
      px      :     0.008416
      py      :     0.005340
  4 H s       :     0.870129  s :     0.870129
      pz      :     0.010826  p :     0.023108
      px      :     0.006974
      py      :     0.005308


                     *******************************
                     * LOEWDIN POPULATION ANALYSIS *
                     *******************************

----------------------
LOEWDIN ATOMIC CHARGES
----------------------
   0 C :   -0.045915
   1 H :    0.011431
   2 H :    0.011526
   3 H :    0.011531
   4 H :    0.011428

-------------------------------
LOEWDIN REDUCED ORBITAL CHARGES
-------------------------------
  0 C s       :     2.772251  s :     2.772251
      pz      :     1.070173  p :     3.210924
      px      :     1.070580
      py      :     1.070171
      dz2     :     0.016015  d :     0.062740
      dxz     :     0.019998
      dyz     :     0.000465
      dx2y2   :     0.006205
      dxy     :     0.020058
  1 H s       :     0.920964  s :     0.920964
      pz      :     0.013845  p :     0.067606
      px      :     0.019943
      py      :     0.033817
  2 H s       :     0.920814  s :     0.920814
      pz      :     0.013793  p :     0.067661
      px      :     0.025118
      py      :     0.028751
  3 H s       :     0.920813  s :     0.920813
      pz      :     0.028670  p :     0.067656
      px      :     0.025115
      py      :     0.013871
  4 H s       :     0.920966  s :     0.920966
      pz      :     0.033899  p :     0.067606
      px      :     0.019944
      py      :     0.013763


                      *****************************
                      * MAYER POPULATION ANALYSIS *
                      *****************************

  NA   - Mulliken gross atomic population
  ZA   - Total nuclear charge
  QA   - Mulliken gross atomic charge
  VA   - Mayer's total valence
  BVA  - Mayer's bonded valence
  FA   - Mayer's free valence

  ATOM       NA         ZA         QA         VA         BVA        FA
  0 C      6.4284     6.0000    -0.4284     3.9357     3.9357    -0.0000
  1 H      0.8932     1.0000     0.1068     0.9664     0.9664    -0.0000
  2 H      0.8926     1.0000     0.1074     0.9668     0.9668    -0.0000
  3 H      0.8925     1.0000     0.1075     0.9667     0.9667    -0.0000
  4 H      0.8932     1.0000     0.1068     0.9664     0.9664    -0.0000

  Mayer bond orders larger than 0.100000
B(  0-C ,  1-H ) :   0.9841 B(  0-C ,  2-H ) :   0.9837 B(  0-C ,  3-H ) :   0.9837 
B(  0-C ,  4-H ) :   0.9841 

-------
TIMINGS
-------

Total SCF time: 0 days 0 hours 0 min 1 sec 

Total time                  ....       1.714 sec
Sum of individual times     ....       1.481 sec  ( 86.4%)

Fock matrix formation       ....       1.230 sec  ( 71.8%)
  XC integration            ....       0.252 sec  ( 20.5% of F)
    Basis function eval.    ....       0.104 sec  ( 41.1% of XC)
    Density eval.           ....       0.037 sec  ( 14.6% of XC)
    XC-Functional eval.     ....       0.055 sec  ( 21.6% of XC)
    XC-Potential eval.      ....       0.044 sec  ( 17.6% of XC)
Diagonalization             ....       0.002 sec  (  0.1%)
Density matrix formation    ....       0.000 sec  (  0.0%)
Population analysis         ....       0.001 sec  (  0.0%)
Initial guess               ....       0.126 sec  (  7.4%)
Orbital Transformation      ....       0.000 sec  (  0.0%)
Orbital Orthonormalization  ....       0.000 sec  (  0.0%)
DIIS solution               ....       0.001 sec  (  0.0%)
SOSCF solution              ....       0.001 sec  (  0.0%)
Grid generation             ....       0.121 sec  (  7.0%)

-------------------------   --------------------
FINAL SINGLE POINT ENERGY       -40.497765718818
-------------------------   --------------------

------------------------------------------------------------------------------
                         ORCA SCF GRADIENT CALCULATION
------------------------------------------------------------------------------

Gradient of the Kohn-Sham DFT energy:
Kohn-Sham wavefunction type      ... RKS
Hartree-Fock exchange scaling    ...    0.200
Number of operators              ...    1
Number of atoms                  ...    5
Basis set dimensions             ...   42
Integral neglect threshold       ... 2.5e-11
Integral primitive cutoff        ... 2.5e-12

Nuclear repulsion gradient       ... done
One Electron Gradient            ... done
Pre-screening matrix             ... done
Starting the two electron gradient:
Two electron gradient done
Exchange-correlation gradient    ... done

------------------
CARTESIAN GRADIENT
------------------

   1   C   :    0.000017266   -0.000069840   -0.000072546
   2   H   :    0.000250170   -0.000465979    0.000088547
   3   H   :    0.000299623    0.000396242    0.000053552
   4   H   :   -0.000310406    0.000069194    0.000401531
   5   H   :   -0.000256653    0.000070385   -0.000471083

Difference to translation invariance:
           :   -0.0000000000    0.0000000000   -0.0000000000

Norm of the cartesian gradient     ...    0.0010501242
RMS gradient                       ...    0.0002711409
MAX gradient                       ...    0.0004710829

-------
TIMINGS
-------

Total SCF gradient time            ...        0.461 sec

One electron gradient       ....       0.003 sec  (  0.7%)
Prescreening matrices       ....       0.005 sec  (  1.0%)
Two electron gradient       ....       0.094 sec  ( 20.4%)
XC gradient                 ....       0.254 sec  ( 55.0%)
------------------------------------------------------------------------------
                         ORCA GEOMETRY RELAXATION STEP
------------------------------------------------------------------------------

Reading the OPT-File                    .... done
Getting information on internals        .... done
Copying old internal coords+grads       .... done
Making the new internal coordinates     .... (new redundants).... done
Validating the new internal coordinates .... (new redundants).... done
Calculating the B-matrix                .... done
Calculating the G,G- and P matrices     .... done
Transforming gradient to internals      .... done
Projecting the internal gradient        .... done
Number of atoms                         ....   5
Number of internal coordinates          ....  10
Current Energy                          ....   -40.497765719 Eh
Current gradient norm                   ....     0.001050124 Eh/bohr
Maximum allowed component of the step   ....  0.300
Current trust radius                    ....  0.300
Evaluating the initial hessian          ....  (Almloef) done
Projecting the Hessian                  .... done
Forming the augmented Hessian           .... done
Diagonalizing the augmented Hessian     .... done
Last element of RFO vector              ....  0.999995662
Lowest eigenvalues of augmented Hessian:
 -0.000003089  0.290209507  0.290209507  0.290209507  0.290209507
Length of the computed step             ....  0.002945477
The final length of the internal step   ....  0.002945477
Converting the step to cartesian space:
 Initial RMS(Int)=    0.0009314416
Transforming coordinates:
 Iter   0:  RMS(Cart)=    0.0007626122 RMS(Int)=    0.0009314413
 Iter   1:  RMS(Cart)=    0.0000000851 RMS(Int)=    0.0000001022
done
Storing new coordinates                 .... done

                                .--------------------.
          ----------------------|Geometry convergence|-------------------------
          Item                value                   Tolerance       Converged
          ---------------------------------------------------------------------
          RMS gradient        0.0003317665            0.0001000000      NO
          MAX gradient        0.0005389118            0.0003000000      NO
          RMS step            0.0009314416            0.0020000000      YES
          MAX step            0.0015069181            0.0040000000      YES
          ........................................................
          Max(Bonds)      0.0008      Max(Angles)    0.02
          Max(Dihed)        0.00      Max(Improp)    0.00
          ---------------------------------------------------------------------

The optimization has not yet converged - more geometry cycles are needed


    ---------------------------------------------------------------------------
                         Redundant Internal Coordinates
                            (Angstroem and degrees)

        Definition                    Value    dE/dq     Step     New-Value
    ----------------------------------------------------------------------------
     1. B(H   1,C   0)                1.0919  0.000534 -0.0008    1.0911   
     2. B(H   2,C   0)                1.0919  0.000498 -0.0007    1.0911   
     3. B(H   3,C   0)                1.0919  0.000510 -0.0008    1.0911   
     4. B(H   4,C   0)                1.0919  0.000539 -0.0008    1.0911   
     5. A(H   1,C   0,H   3)          109.47 -0.000023    0.00    109.48   
     6. A(H   2,C   0,H   3)          109.47 -0.000087    0.02    109.49   
     7. A(H   1,C   0,H   4)          109.47  0.000087   -0.02    109.45   
     8. A(H   2,C   0,H   4)          109.47 -0.000021    0.00    109.48   
     9. A(H   3,C   0,H   4)          109.47  0.000018   -0.00    109.47   
    10. A(H   1,C   0,H   2)          109.47  0.000026   -0.01    109.47   
    ----------------------------------------------------------------------------

         *************************************************************
         *                GEOMETRY OPTIMIZATION CYCLE   2            *
         *************************************************************
---------------------------------
CARTESIAN COORDINATES (ANGSTROEM)
---------------------------------
  C     -1.807937    0.000068   -0.903896
  H     -1.277896   -0.950597   -0.827931
  H     -1.091763    0.821285   -0.846535
  H     -2.524088    0.083747   -0.084948
  H     -2.337958    0.045496   -1.856511

----------------------------
CARTESIAN COORDINATES (A.U.)
----------------------------
  NO LB      ZA    FRAG     MASS         X           Y           Z
   0 C     6.0000    0    12.011   -3.416505    0.000128   -1.708117
   1 H     1.0000    0     1.008   -2.414874   -1.796368   -1.564563
   2 H     1.0000    0     1.008   -2.063132    1.552004   -1.599720
   3 H     1.0000    0     1.008   -4.769836    0.158260   -0.160528
   4 H     1.0000    0     1.008   -4.418101    0.085976   -3.508297

--------------------------------
INTERNAL COORDINATES (ANGSTROEM)
--------------------------------
 C      0   0   0     0.000000000000     0.00000000     0.00000000
 H      1   0   0     1.091089903177     0.00000000     0.00000000
 H      1   2   0     1.091143187137   109.46605804     0.00000000
 H      1   2   3     1.091124370278   109.47582530   239.97928731
 H      1   2   3     1.091082206092   109.45401566   119.99142736

---------------------------
INTERNAL COORDINATES (A.U.)
---------------------------
 C      0   0   0     0.000000000000     0.00000000     0.00000000
 H      1   0   0     2.061861104491     0.00000000     0.00000000
 H      1   2   0     2.061961796582   109.46605804     0.00000000
 H      1   2   3     2.061926237872   109.47582530   239.97928731
 H      1   2   3     2.061846559108   109.45401566   119.99142736


Diagonalization of the overlap matrix:
Smallest eigenvalue                        ... 1.287e-02
Time for diagonalization                   ...    0.000 sec
Threshold for overlap eigenvalues          ... 1.000e-08
Number of eigenvalues below threshold      ... 0
Time for construction of square roots      ...    0.000 sec
Total time needed                          ...    0.001 sec

-------------------
DFT GRID GENERATION
-------------------

General Integration Accuracy     IntAcc      ...  4.340
Radial Grid Type                 RadialGrid  ... Gauss-Chebyshev
Angular Grid (max. acc.)         AngularGrid ... Lebedev-110
Angular grid pruning method      GridPruning ... 3 (G Style)
Weight generation scheme         WeightScheme... Becke
Basis function cutoff            BFCut       ...    1.0000e-11
Integration weight cutoff        WCut        ...    1.0000e-14
Grids for H and He will be reduced by one unit

# of grid points (after initial pruning)     ...   4832 (   0.0 sec)
# of grid points (after weights+screening)   ...   4692 (   0.0 sec)
nearest neighbour list constructed           ...    0.0 sec
Grid point re-assignment to atoms done       ...    0.0 sec
Grid point division into batches done        ...    0.0 sec
Reduced shell lists constructed in    0.0 sec

Total number of grid points                  ...     4692
Total number of batches                      ...       76
Average number of points per batch           ...       61
Average number of grid points per atom       ...      938
Average number of shells per batch           ...    22.35 (93.13%)
Average number of basis functions per batch  ...    39.16 (93.23%)
Average number of large shells per batch     ...    21.09 (94.36%)
Average number of large basis fcns per batch ...    36.94 (94.33%)
Maximum spatial batch extension              ...  21.59, 23.60, 23.60 au
Average spatial batch extension              ...   5.63,  5.22,  5.42 au

Time for grid setup =    0.016 sec

--------------
SCF ITERATIONS
--------------
ITER       Energy         Delta-E        Max-DP      RMS-DP      [F,P]     Damp
               ***  Starting incremental Fock matrix formation  ***
                      *** Initiating the SOSCF procedure ***
                      *** Re-Reading the Fockian *** 
                      *** Removing any level shift *** 
ITER      Energy       Delta-E        Grad      Rot      Max-DP    RMS-DP
  0    -40.49782224 -40.4978222442  0.000254  0.000254  0.000222  0.000015
               *** Restarting incremental Fock matrix formation ***
  1    -40.49782251  -0.0000002680  0.000090  0.000088  0.000279  0.000010
  2    -40.49782250   0.0000000129  0.000088  0.000059  0.000113  0.000005
                  ***Gradient check signals convergence***
              ***Rediagonalizing the Fockian in SOSCF/NRSCF***

               *****************************************************
               *                     SUCCESS                       *
               *           SCF CONVERGED AFTER   3 CYCLES          *
               *****************************************************

Setting up the final grid:

General Integration Accuracy     IntAcc      ...  4.670
Radial Grid Type                 RadialGrid  ... Gauss-Chebyshev
Angular Grid (max. acc.)         AngularGrid ... Lebedev-302
Angular grid pruning method      GridPruning ... 3 (G Style)
Weight generation scheme         WeightScheme... Becke
Basis function cutoff            BFCut       ...    1.0000e-11
Integration weight cutoff        WCut        ...    1.0000e-14
Grids for H and He will be reduced by one unit

# of grid points (after initial pruning)     ...  19788 (   0.0 sec)
# of grid points (after weights+screening)   ...  19293 (   0.0 sec)
nearest neighbour list constructed           ...    0.0 sec
Grid point re-assignment to atoms done       ...    0.0 sec
Grid point division into batches done        ...    0.1 sec
Reduced shell lists constructed in    0.1 sec

Total number of grid points                  ...    19293
Total number of batches                      ...      303
Average number of points per batch           ...       63
Average number of grid points per atom       ...     3859
Average number of shells per batch           ...    20.77 (86.55%)
Average number of basis functions per batch  ...    36.27 (86.36%)
Average number of large shells per batch     ...    19.05 (91.70%)
Average number of large basis fcns per batch ...    33.44 (92.18%)
Maximum spatial batch extension              ...  19.04, 20.64, 20.64 au
Average spatial batch extension              ...   3.30,  3.14,  3.13 au

Final grid set up in    0.1 sec
Final integration                            ... done (   0.1 sec)
Change in XC energy                          ...     0.000055272
Integrated number of electrons               ...     9.999994299
Previous integrated no of electrons          ...    10.000611626
Total Energy       :          -40.49776729 Eh           -1102.00027 eV
  Last Energy change         ...   -5.9939e-08  Tolerance :   1.0000e-08
  Last MAX-Density change    ...    1.6406e-06  Tolerance :   1.0000e-07
             **** THE GBW FILE WAS UPDATED (orca.gbw) ****
             **** DENSITY FILE WAS UPDATED (orca.scfp) ****
             **** ENERGY FILE WAS UPDATED (orca.en.tmp) ****
             **** THE GBW FILE WAS UPDATED (orca.gbw) ****
             **** DENSITY FILE WAS UPDATED (orca.scfp) ****
Total SCF time: 0 days 0 hours 0 min 0 sec 

-------------------------   --------------------
FINAL SINGLE POINT ENERGY       -40.497767287249
-------------------------   --------------------

------------------------------------------------------------------------------
                         ORCA SCF GRADIENT CALCULATION
------------------------------------------------------------------------------

Gradient of the Kohn-Sham DFT energy:
Kohn-Sham wavefunction type      ... RKS
Hartree-Fock exchange scaling    ...    0.200
Number of operators              ...    1
Number of atoms                  ...    5
Basis set dimensions             ...   42
Integral neglect threshold       ... 2.5e-11
Integral primitive cutoff        ... 2.5e-12

Nuclear repulsion gradient       ... done
One Electron Gradient            ... done
Pre-screening matrix             ... done
Starting the two electron gradient:
Two electron gradient done
Exchange-correlation gradient    ... done

------------------
CARTESIAN GRADIENT
------------------

   1   C   :    0.000005567   -0.000063732   -0.000062877
   2   H   :   -0.000003879   -0.000010938    0.000031967
   3   H   :   -0.000001118    0.000025031    0.000018298
   4   H   :   -0.000001359    0.000021315    0.000023708
   5   H   :    0.000000788    0.000028324   -0.000011097

Difference to translation invariance:
           :   -0.0000000000    0.0000000000    0.0000000000

Norm of the cartesian gradient     ...    0.0001100443
RMS gradient                       ...    0.0000284133
MAX gradient                       ...    0.0000637317

-------
TIMINGS
-------

Total SCF gradient time            ...        0.470 sec

One electron gradient       ....       0.003 sec  (  0.7%)
Prescreening matrices       ....       0.005 sec  (  1.0%)
Two electron gradient       ....       0.099 sec  ( 21.0%)
XC gradient                 ....       0.254 sec  ( 54.1%)
------------------------------------------------------------------------------
                         ORCA GEOMETRY RELAXATION STEP
------------------------------------------------------------------------------

Reading the OPT-File                    .... done
Getting information on internals        .... done
Copying old internal coords+grads       .... done
Making the new internal coordinates     .... (new redundants).... done
Validating the new internal coordinates .... (new redundants).... done
Calculating the B-matrix                .... done
Calculating the G,G- and P matrices     .... done
Transforming gradient to internals      .... done
Projecting the internal gradient        .... done
Number of atoms                         ....   5
Number of internal coordinates          ....  10
Current Energy                          ....   -40.497767287 Eh
Current gradient norm                   ....     0.000110044 Eh/bohr
Maximum allowed component of the step   ....  0.300
Current trust radius                    ....  0.300
Updating the Hessian (BFGS)             .... done
Forming the augmented Hessian           .... done
Diagonalizing the augmented Hessian     .... done
Last element of RFO vector              ....  0.999999957
Lowest eigenvalues of augmented Hessian:
 -0.000000024  0.277239678  0.290209507  0.290209507  0.290209507
Length of the computed step             ....  0.000291892
The final length of the internal step   ....  0.000291892
Converting the step to cartesian space:
 Initial RMS(Int)=    0.0000923042
Transforming coordinates:
 Iter   0:  RMS(Cart)=    0.0000732706 RMS(Int)=    0.0000923042
 Iter   1:  RMS(Cart)=    0.0000000063 RMS(Int)=    0.0000000073
done
Storing new coordinates                 .... done

                                .--------------------.
          ----------------------|Geometry convergence|-------------------------
          Item                value                   Tolerance       Converged
          ---------------------------------------------------------------------
          Energy change      -0.0000015684            0.0000050000      YES
          RMS gradient        0.0000256665            0.0001000000      YES
          MAX gradient        0.0000500058            0.0003000000      YES
          RMS step            0.0000923042            0.0020000000      YES
          MAX step            0.0001811141            0.0040000000      YES
          ........................................................
          Max(Bonds)      0.0000      Max(Angles)    0.01
          Max(Dihed)        0.00      Max(Improp)    0.00
          ---------------------------------------------------------------------

                    ***********************HURRAY********************
                    ***        THE OPTIMIZATION HAS CONVERGED     ***
                    *************************************************


    ---------------------------------------------------------------------------
                         Redundant Internal Coordinates

                          --- Optimized Parameters ---  
                            (Angstroem and degrees)

        Definition                    OldVal   dE/dq     Step     FinalVal
    ----------------------------------------------------------------------------
     1. B(H   1,C   0)                1.0911  0.000010 -0.0000    1.0911   
     2. B(H   2,C   0)                1.0911  0.000019 -0.0000    1.0911   
     3. B(H   3,C   0)                1.0911  0.000020 -0.0000    1.0911   
     4. B(H   4,C   0)                1.0911  0.000010 -0.0000    1.0911   
     5. A(H   1,C   0,H   3)          109.48 -0.000014    0.00    109.48   
     6. A(H   2,C   0,H   3)          109.49 -0.000050    0.01    109.50   
     7. A(H   1,C   0,H   4)          109.45  0.000049   -0.01    109.44   
     8. A(H   2,C   0,H   4)          109.48 -0.000012    0.00    109.48   
     9. A(H   3,C   0,H   4)          109.47  0.000010   -0.00    109.47   
    10. A(H   1,C   0,H   2)          109.47  0.000016   -0.00    109.46   
    ----------------------------------------------------------------------------
                 *******************************************************
                 *** FINAL ENERGY EVALUATION AT THE STATIONARY POINT ***
                 ***               (AFTER    2 CYCLES)               ***
                 *******************************************************
---------------------------------
CARTESIAN COORDINATES (ANGSTROEM)
---------------------------------
  C     -1.807941    0.000116   -0.903849
  H     -1.277914   -0.950542   -0.827986
  H     -1.091722    0.821254   -0.846554
  H     -2.524129    0.083729   -0.084973
  H     -2.337937    0.045444   -1.856458

----------------------------
CARTESIAN COORDINATES (A.U.)
----------------------------
  NO LB      ZA    FRAG     MASS         X           Y           Z
   0 C     6.0000    0    12.011   -3.416513    0.000219   -1.708028
   1 H     1.0000    0     1.008   -2.414908   -1.796264   -1.564667
   2 H     1.0000    0     1.008   -2.063055    1.551945   -1.599756
   3 H     1.0000    0     1.008   -4.769912    0.158224   -0.160576
   4 H     1.0000    0     1.008   -4.418060    0.085876   -3.508198

--------------------------------
INTERNAL COORDINATES (ANGSTROEM)
--------------------------------
 C      0   0   0     0.000000000000     0.00000000     0.00000000
 H      1   0   0     1.091069889335     0.00000000     0.00000000
 H      1   2   0     1.091109342428   109.46276587     0.00000000
 H      1   2   3     1.091088480122   109.47863106   239.96687650
 H      1   2   3     1.091061200865   109.44381140   119.98619800

---------------------------
INTERNAL COORDINATES (A.U.)
---------------------------
 C      0   0   0     0.000000000000     0.00000000     0.00000000
 H      1   0   0     2.061823283810     0.00000000     0.00000000
 H      1   2   0     2.061897839351   109.46276587     0.00000000
 H      1   2   3     2.061858415306   109.47863106   239.96687650
 H      1   2   3     2.061806864982   109.44381140   119.98619800

---------------------
BASIS SET INFORMATION
---------------------
There are 2 groups of distinct atoms

 Group   1 Type C   : 11s5p1d contracted to 4s3p1d pattern {6311/311/1}
 Group   2 Type H   : 5s1p contracted to 3s1p pattern {311/1}

Atom   0C    basis set group =>   1
Atom   1H    basis set group =>   2
Atom   2H    basis set group =>   2
Atom   3H    basis set group =>   2
Atom   4H    basis set group =>   2
------------------------------------------------------------------------------
                           ORCA GTO INTEGRAL CALCULATION
------------------------------------------------------------------------------

                         BASIS SET STATISTICS AND STARTUP INFO

 # of primitive gaussian shells          ...   41
 # of primitive gaussian functions       ...   63
 # of contracted shells                  ...   24
 # of contracted basis functions         ...   42
 Highest angular momentum                ...    2
 Maximum contraction depth               ...    6
 Integral package used                   ... LIBINT
 Integral threshhold            Thresh   ...  2.500e-11
 Primitive cut-off              TCut     ...  2.500e-12


------------------------------ INTEGRAL EVALUATION ----------------------------


 * One electron integrals 
 Pre-screening matrix                    ... done
 Shell pair data                         ... done (   0.000 sec)

-------------------------------------------------------------------------------
                                 ORCA SCF
-------------------------------------------------------------------------------

------------
SCF SETTINGS
------------
Hamiltonian:
 Density Functional     Method          .... DFT(GTOs)
 Exchange Functional    Exchange        .... B88
   X-Alpha parameter    XAlpha          ....  0.666667
   Becke's b parameter  XBeta           ....  0.004200
 Correlation Functional Correlation     .... LYP
 LDA part of GGA corr.  LDAOpt          .... VWN-5
 Gradients option       PostSCFGGA      .... off
 Hybrid DFT is turned on
   Fraction HF Exchange ScalHFX         ....  0.200000
   Scaling of DF-GGA-X  ScalDFX         ....  0.720000
   Scaling of DF-GGA-C  ScalDFC         ....  0.810000
   Scaling of DF-LDA-C  ScalLDAC        ....  1.000000
   Perturbative correction              ....  0.000000
   Density functional embedding theory  .... OFF
   NL short-range parameter             ....  4.800000


General Settings:
 Integral files         IntName         .... orca
 Hartree-Fock type      HFTyp           .... RHF
 Total Charge           Charge          ....    0
 Multiplicity           Mult            ....    1
 Number of Electrons    NEL             ....   10
 Basis Dimension        Dim             ....   42
 Nuclear Repulsion      ENuc            ....     13.4220628942 Eh

Convergence Acceleration:
 DIIS                   CNVDIIS         .... on
   Start iteration      DIISMaxIt       ....    12
   Startup error        DIISStart       ....  0.200000
   # of expansion vecs  DIISMaxEq       ....     5
   Bias factor          DIISBfac        ....   1.050
   Max. coefficient     DIISMaxC        ....  10.000
 Newton-Raphson         CNVNR           .... off
 SOSCF                  CNVSOSCF        .... on
   Start iteration      SOSCFMaxIt      ....   150
   Startup grad/error   SOSCFStart      ....  0.003300
 Level Shifting         CNVShift        .... on
   Level shift para.    LevelShift      ....    0.2500
   Turn off err/grad.   ShiftErr        ....    0.0010
 Zerner damping         CNVZerner       .... off
 Static damping         CNVDamp         .... on
   Fraction old density DampFac         ....    0.7000
   Max. Damping (<1)    DampMax         ....    0.9800
   Min. Damping (>=0)   DampMin         ....    0.0000
   Turn off err/grad.   DampErr         ....    0.1000
 Fernandez-Rico         CNVRico         .... off

SCF Procedure:
 Maximum # iterations   MaxIter         ....   125
 SCF integral mode      SCFMode         .... Direct
   Integral package                     .... LIBINT
 Reset frequency        DirectResetFreq ....    20
 Integral Threshold     Thresh          ....  2.500e-11 Eh
 Primitive CutOff       TCut            ....  2.500e-12 Eh

Convergence Tolerance:
 Convergence Check Mode ConvCheckMode   .... Total+1el-Energy
 Convergence forced     ConvForced      .... 0
 Energy Change          TolE            ....  1.000e-08 Eh
 1-El. energy change                    ....  1.000e-05 Eh
 Orbital Gradient       TolG            ....  1.000e-05
 Orbital Rotation angle TolX            ....  1.000e-05
 DIIS Error             TolErr          ....  5.000e-07


Diagonalization of the overlap matrix:
Smallest eigenvalue                        ... 1.287e-02
Time for diagonalization                   ...    0.000 sec
Threshold for overlap eigenvalues          ... 1.000e-08
Number of eigenvalues below threshold      ... 0
Time for construction of square roots      ...    0.000 sec
Total time needed                          ...    0.001 sec

---------------------
INITIAL GUESS: MOREAD
---------------------
Guess MOs are being read from file: orca.gbw
Input Geometry matches current geometry (good)
Input basis set matches current basis set (good)
MOs were renormalized
MOs were reorthogonalized (Cholesky)
                      ------------------
                      INITIAL GUESS DONE (   0.0 sec)
                      ------------------
-------------------
DFT GRID GENERATION
-------------------

General Integration Accuracy     IntAcc      ...  4.340
Radial Grid Type                 RadialGrid  ... Gauss-Chebyshev
Angular Grid (max. acc.)         AngularGrid ... Lebedev-110
Angular grid pruning method      GridPruning ... 3 (G Style)
Weight generation scheme         WeightScheme... Becke
Basis function cutoff            BFCut       ...    1.0000e-11
Integration weight cutoff        WCut        ...    1.0000e-14
Grids for H and He will be reduced by one unit

# of grid points (after initial pruning)     ...   4832 (   0.0 sec)
# of grid points (after weights+screening)   ...   4692 (   0.0 sec)
nearest neighbour list constructed           ...    0.0 sec
Grid point re-assignment to atoms done       ...    0.0 sec
Grid point division into batches done        ...    0.0 sec
Reduced shell lists constructed in    0.0 sec

Total number of grid points                  ...     4692
Total number of batches                      ...       76
Average number of points per batch           ...       61
Average number of grid points per atom       ...      938
Average number of shells per batch           ...    22.35 (93.13%)
Average number of basis functions per batch  ...    39.16 (93.23%)
Average number of large shells per batch     ...    21.09 (94.36%)
Average number of large basis fcns per batch ...    36.94 (94.33%)
Maximum spatial batch extension              ...  21.59, 23.60, 23.60 au
Average spatial batch extension              ...   5.63,  5.22,  5.42 au

Time for grid setup =    0.017 sec

--------------
SCF ITERATIONS
--------------
ITER       Energy         Delta-E        Max-DP      RMS-DP      [F,P]     Damp
               ***  Starting incremental Fock matrix formation  ***
                      *** Initiating the SOSCF procedure ***
                      *** Re-Reading the Fockian *** 
                      *** Removing any level shift *** 
ITER      Energy       Delta-E        Grad      Rot      Max-DP    RMS-DP
  0    -40.49782262 -40.4978226169  0.000016  0.000016  0.000008  0.000001
               *** Restarting incremental Fock matrix formation ***
  1    -40.49782262  -0.0000000018  0.000003  0.000006  0.000010  0.000001
  2    -40.49782262  -0.0000000001  0.000003  0.000003  0.000004  0.000000
                 **** Energy Check signals convergence ****
              ***Rediagonalizing the Fockian in SOSCF/NRSCF***

               *****************************************************
               *                     SUCCESS                       *
               *           SCF CONVERGED AFTER   3 CYCLES          *
               *****************************************************

Setting up the final grid:

General Integration Accuracy     IntAcc      ...  4.670
Radial Grid Type                 RadialGrid  ... Gauss-Chebyshev
Angular Grid (max. acc.)         AngularGrid ... Lebedev-302
Angular grid pruning method      GridPruning ... 3 (G Style)
Weight generation scheme         WeightScheme... Becke
Basis function cutoff            BFCut       ...    1.0000e-11
Integration weight cutoff        WCut        ...    1.0000e-14
Grids for H and He will be reduced by one unit

# of grid points (after initial pruning)     ...  19788 (   0.0 sec)
# of grid points (after weights+screening)   ...  19293 (   0.0 sec)
nearest neighbour list constructed           ...    0.0 sec
Grid point re-assignment to atoms done       ...    0.0 sec
Grid point division into batches done        ...    0.1 sec
Reduced shell lists constructed in    0.1 sec

Total number of grid points                  ...    19293
Total number of batches                      ...      303
Average number of points per batch           ...       63
Average number of grid points per atom       ...     3859
Average number of shells per batch           ...    20.77 (86.55%)
Average number of basis functions per batch  ...    36.27 (86.36%)
Average number of large shells per batch     ...    19.05 (91.72%)
Average number of large basis fcns per batch ...    33.45 (92.21%)
Maximum spatial batch extension              ...  19.04, 20.64, 20.64 au
Average spatial batch extension              ...   3.30,  3.14,  3.12 au

Final grid set up in    0.1 sec
Final integration                            ... done (   0.1 sec)
Change in XC energy                          ...     0.000055352
Integrated number of electrons               ...     9.999994297
Previous integrated no of electrons          ...    10.000613314

----------------
TOTAL SCF ENERGY
----------------

Total Energy       :          -40.49776727 Eh           -1102.00027 eV

Components:
Nuclear Repulsion  :           13.42206289 Eh             365.23290 eV
Electronic Energy  :          -53.91983016 Eh           -1467.23317 eV
One Electron Energy:          -79.81580893 Eh           -2171.89858 eV
Two Electron Energy:           25.89597877 Eh             704.66541 eV

Virial components:
Potential Energy   :          -80.77852677 Eh           -2198.09546 eV
Kinetic Energy     :           40.28075951 Eh            1096.09519 eV
Virial Ratio       :            2.00538738


DFT components:
N(Alpha)           :        4.999997148436 electrons
N(Beta)            :        4.999997148436 electrons
N(Total)           :        9.999994296871 electrons
E(X)               :       -5.207292736161 Eh       
E(C)               :       -0.351336098930 Eh       
E(XC)              :       -5.558628835091 Eh       
DFET-embed. en.    :        0.000000000000 Eh       

---------------
SCF CONVERGENCE
---------------

  Last Energy change         ...   -8.4668e-11  Tolerance :   1.0000e-08
  Last MAX-Density change    ...    5.3517e-07  Tolerance :   1.0000e-07
  Last RMS-Density change    ...    5.8702e-08  Tolerance :   5.0000e-09
  Last Orbital Gradient      ...    4.0062e-07  Tolerance :   1.0000e-05
  Last Orbital Rotation      ...    6.6830e-07  Tolerance :   1.0000e-05

             **** THE GBW FILE WAS UPDATED (orca.gbw) ****
             **** DENSITY FILE WAS UPDATED (orca.scfp) ****
             **** ENERGY FILE WAS UPDATED (orca.en.tmp) ****
             **** THE GBW FILE WAS UPDATED (orca.gbw) ****
             **** DENSITY FILE WAS UPDATED (orca.scfp) ****
----------------
ORBITAL ENERGIES
----------------

  NO   OCC          E(Eh)            E(eV) 
   0   2.0000     -10.148961      -276.1673 
   1   2.0000      -0.692724       -18.8500 
   2   2.0000      -0.391700       -10.6587 
   3   2.0000      -0.391511       -10.6536 
   4   2.0000      -0.391501       -10.6533 
   5   0.0000       0.056016         1.5243 
   6   0.0000       0.126114         3.4317 
   7   0.0000       0.126812         3.4507 
   8   0.0000       0.127907         3.4805 
   9   0.0000       0.280352         7.6288 
  10   0.0000       0.281245         7.6531 
  11   0.0000       0.285378         7.7655 
  12   0.0000       0.545521        14.8444 
  13   0.0000       0.592930        16.1344 
  14   0.0000       0.594344        16.1729 
  15   0.0000       0.594989        16.1905 
  16   0.0000       0.748345        20.3635 
  17   0.0000       0.967741        26.3336 
  18   0.0000       0.968205        26.3462 
  19   0.0000       1.457494        39.6604 
  20   0.0000       1.457954        39.6729 
  21   0.0000       1.458087        39.6766 
  22   0.0000       1.462836        39.8058 
  23   0.0000       1.462884        39.8071 
  24   0.0000       1.464967        39.8638 
  25   0.0000       1.891663        51.4748 
  26   0.0000       1.892517        51.4980 
  27   0.0000       1.892714        51.5034 
  28   0.0000       2.175730        59.2046 
  29   0.0000       2.316935        63.0470 
  30   0.0000       2.317730        63.0686 
  31   0.0000       2.401102        65.3373 
  32   0.0000       2.401286        65.3423 
  33   0.0000       2.401298        65.3426 
  34   0.0000       2.524315        68.6901 
  35   0.0000       2.524637        68.6989 
  36   0.0000       2.524756        68.7021 
  37   0.0000       2.870026        78.0974 
  38   0.0000       3.789104       103.1068 
  39   0.0000       3.789519       103.1180 
  40   0.0000       3.790689       103.1499 
  41   0.0000      23.991231       652.8346 

                    ********************************
                    * MULLIKEN POPULATION ANALYSIS *
                    ********************************

-----------------------
MULLIKEN ATOMIC CHARGES
-----------------------
   0 C :   -0.428359
   1 H :    0.106750
   2 H :    0.107429
   3 H :    0.107452
   4 H :    0.106728
Sum of atomic charges:   -0.0000000

--------------------------------
MULLIKEN REDUCED ORBITAL CHARGES
--------------------------------
  0 C s       :     3.216316  s :     3.216316
      pz      :     1.059785  p :     3.179928
      px      :     1.060342
      py      :     1.059800
      dz2     :     0.008145  d :     0.032115
      dxz     :     0.010268
      dyz     :     0.000235
      dx2y2   :     0.003166
      dxy     :     0.010301
  1 H s       :     0.870113  s :     0.870113
      pz      :     0.005349  p :     0.023137
      px      :     0.006983
      py      :     0.010805
  2 H s       :     0.869262  s :     0.869262
      pz      :     0.005334  p :     0.023309
      px      :     0.008433
      py      :     0.009541
  3 H s       :     0.869253  s :     0.869253
      pz      :     0.009517  p :     0.023296
      px      :     0.008426
      py      :     0.005353
  4 H s       :     0.870131  s :     0.870131
      pz      :     0.010832  p :     0.023141
      px      :     0.006985
      py      :     0.005324


                     *******************************
                     * LOEWDIN POPULATION ANALYSIS *
                     *******************************

----------------------
LOEWDIN ATOMIC CHARGES
----------------------
   0 C :   -0.045621
   1 H :    0.011354
   2 H :    0.011458
   3 H :    0.011460
   4 H :    0.011349

-------------------------------
LOEWDIN REDUCED ORBITAL CHARGES
-------------------------------
  0 C s       :     2.771437  s :     2.771437
      pz      :     1.070339  p :     3.211355
      px      :     1.070681
      py      :     1.070335
      dz2     :     0.016038  d :     0.062829
      dxz     :     0.020026
      dyz     :     0.000462
      dx2y2   :     0.006215
      dxy     :     0.020087
  1 H s       :     0.920924  s :     0.920924
      pz      :     0.013895  p :     0.067722
      px      :     0.019983
      py      :     0.033844
  2 H s       :     0.920773  s :     0.920773
      pz      :     0.013836  p :     0.067769
      px      :     0.025156
      py      :     0.028777
  3 H s       :     0.920773  s :     0.920773
      pz      :     0.028698  p :     0.067768
      px      :     0.025154
      py      :     0.013915
  4 H s       :     0.920927  s :     0.920927
      pz      :     0.033927  p :     0.067724
      px      :     0.019983
      py      :     0.013814


                      *****************************
                      * MAYER POPULATION ANALYSIS *
                      *****************************

  NA   - Mulliken gross atomic population
  ZA   - Total nuclear charge
  QA   - Mulliken gross atomic charge
  VA   - Mayer's total valence
  BVA  - Mayer's bonded valence
  FA   - Mayer's free valence

  ATOM       NA         ZA         QA         VA         BVA        FA
  0 C      6.4284     6.0000    -0.4284     3.9359     3.9359    -0.0000
  1 H      0.8932     1.0000     0.1068     0.9664     0.9664    -0.0000
  2 H      0.8926     1.0000     0.1074     0.9668     0.9668    -0.0000
  3 H      0.8925     1.0000     0.1075     0.9668     0.9668    -0.0000
  4 H      0.8933     1.0000     0.1067     0.9664     0.9664     0.0000

  Mayer bond orders larger than 0.100000
B(  0-C ,  1-H ) :   0.9842 B(  0-C ,  2-H ) :   0.9838 B(  0-C ,  3-H ) :   0.9838 
B(  0-C ,  4-H ) :   0.9842 

-------
TIMINGS
-------

Total SCF time: 0 days 0 hours 0 min 0 sec 

Total time                  ....       0.871 sec
Sum of individual times     ....       0.716 sec  ( 82.2%)

Fock matrix formation       ....       0.547 sec  ( 62.9%)
  XC integration            ....       0.167 sec  ( 30.5% of F)
    Basis function eval.    ....       0.068 sec  ( 40.5% of XC)
    Density eval.           ....       0.025 sec  ( 14.7% of XC)
    XC-Functional eval.     ....       0.037 sec  ( 22.4% of XC)
    XC-Potential eval.      ....       0.029 sec  ( 17.1% of XC)
Diagonalization             ....       0.000 sec  (  0.0%)
Density matrix formation    ....       0.000 sec  (  0.0%)
Population analysis         ....       0.001 sec  (  0.1%)
Initial guess               ....       0.000 sec  (  0.1%)
Orbital Transformation      ....       0.000 sec  (  0.0%)
Orbital Orthonormalization  ....       0.000 sec  (  0.0%)
DIIS solution               ....       0.000 sec  (  0.0%)
SOSCF solution              ....       0.001 sec  (  0.1%)
Grid generation             ....       0.166 sec  ( 19.1%)

-------------------------   --------------------
FINAL SINGLE POINT ENERGY       -40.497767267316
-------------------------   --------------------

                                *** OPTIMIZATION RUN DONE ***

                            ***************************************
                            *     ORCA property calculations      *
                            ***************************************

                                    ---------------------
                                    Active property flags
                                    ---------------------
   (+) Dipole Moment


------------------------------------------------------------------------------
                       ORCA ELECTRIC PROPERTIES CALCULATION
------------------------------------------------------------------------------

Dipole Moment Calculation                       ... on
Quadrupole Moment Calculation                   ... off
Polarizability Calculation                      ... off
GBWName                                         ... orca.gbw
Electron density file                           ... orca.scfp
The origin for moment calculation is the CENTER OF MASS  = (-3.416505,  0.000150 -1.708096)

-------------
DIPOLE MOMENT
-------------
                                X             Y             Z
Electronic contribution:     -0.00003      -0.00006      -0.00002
Nuclear contribution   :      0.00004      -0.00041      -0.00040
                        -----------------------------------------
Total Dipole Moment    :      0.00001      -0.00047      -0.00043
                        -----------------------------------------
Magnitude (a.u.)       :      0.00063
Magnitude (Debye)      :      0.00161



--------------------
Rotational spectrum 
--------------------
 
Rotational constants in cm-1:     5.269164     5.268079     5.267009 
Rotational constants in MHz : 157965.556934 157933.030111 157900.965492 

 Dipole components along the rotational axes: 
x,y,z [a.u.] :     0.000001    -0.000634     0.000026 
x,y,z [Debye]:     0.000002    -0.001612     0.000067 

 

-------------------------------------------------------------------------------
                               ORCA SCF HESSIAN
-------------------------------------------------------------------------------

Hessian of the Kohn-Sham DFT energy:
Kohn-Sham wavefunction type                      ... RKS
Hartree-Fock exchange scaling                    ...    0.200
Number of operators                              ...    1
Number of atoms                                  ...    5
Basis set dimensions                             ...   42
Integral neglect threshold                       ... 2.5e-11
Integral primitive cutoff                        ... 2.5e-12

Setting up DFT Hessian calculations              ... 
Electron density on the grid                     ... found on disk
Electron density on the final grid               ... found on disk
Building xc-kernel on the grid                   ... done   (      0.0 sec)
Building xc-kernel on the final grid             ... done   (      0.0 sec)
                                                     done   (      0.1 sec)

Nuclear repulsion Hessian                        ... done   (      0.0 sec)

----------------------------------------------
Forming right-hand sides of CP-SCF equations     ...
----------------------------------------------
One electron integral derivatives                ... done   (      0.1 sec)
Transforming the overlap derivative matrices     ... done   (      0.1 sec)
Making the Q(x) pseudodensities                  ... done   (      0.0 sec)
Adding the E*S(x)*S(y) terms to the Hessian      ... done   (      0.0 sec)
Calculating energy weighted overlap derivatives  ... done   (      0.0 sec)
Two electron integral derivatives                ... done   (      0.3 sec)
Exchange-correlation integral derivatives        ... done   (      1.2 sec)
tr(F(y)Q(x)) contribution to the Hessian         ... done   (      0.0 sec)
Response fock operator R(S(x))                   ... done   (      0.2 sec)
XC Response fock operator R(S(x))                ... done   (      0.4 sec)
tr(F(y)S(x)) contribution to the Hessian         ... done   (      0.0 sec)
Transforming and finalizing RHSs                 ... done   (      0.0 sec)

----------------------------------------------
Solving the CP-SCF equations                     ...
----------------------------------------------

WARNING    : Tol<Thresh in CP-SCF. This will prevent convergence
CONSEQUENCE:  Setting Tol to 2.500e-10

     CP-SCF ITERATION   0: 
     CP-SCF ITERATION   1:      0.000135047142
     CP-SCF ITERATION   2:      0.000004371899
     CP-SCF ITERATION   3:      0.000000043881
     CP-SCF ITERATION   4:      0.000000000284
     CP-SCF ITERATION   5:      0.000000000071

                                                 ... done   (      1.9 sec)
Forming perturbed density Hessian contributions  ... done   (      0.0 sec)
Making the perturbed densities                   ... done   (      0.0 sec)
2nd integral derivative contribs                 ... done   (      0.9 sec)
Exchange-correlation Hessian                     ... done   (      1.6 sec)
Dipol derivatives                                ... done   (      0.1 sec)

Total SCF Hessian time: 0 days 0 hours 0 min 7 sec 

Writing the Hessian file to the disk             ... done


Maximum memory used throughout the entire calculation: 102.6 MB

-----------------------
VIBRATIONAL FREQUENCIES
-----------------------

Scaling factor for frequencies =  1.000000000  (already applied!)

   0:         0.00 cm**-1
   1:         0.00 cm**-1
   2:         0.00 cm**-1
   3:         0.00 cm**-1
   4:         0.00 cm**-1
   5:         0.00 cm**-1
   6:      1339.83 cm**-1
   7:      1340.19 cm**-1
   8:      1340.98 cm**-1
   9:      1558.79 cm**-1
  10:      1559.51 cm**-1
  11:      3023.20 cm**-1
  12:      3128.36 cm**-1
  13:      3128.49 cm**-1
  14:      3128.66 cm**-1


------------
NORMAL MODES
------------

These modes are the Cartesian displacements weighted by the diagonal matrix
M(i,i)=1/sqrt(m[i]) where m[i] is the mass of the displaced atom
Thus, these vectors are normalized but *not* orthogonal

                  0          1          2          3          4          5    
      0       0.000000   0.000000   0.000000   0.000000   0.000000   0.000000
      1       0.000000   0.000000   0.000000   0.000000   0.000000   0.000000
      2       0.000000   0.000000   0.000000   0.000000   0.000000   0.000000
      3       0.000000   0.000000   0.000000   0.000000   0.000000   0.000000
      4       0.000000   0.000000   0.000000   0.000000   0.000000   0.000000
      5       0.000000   0.000000   0.000000   0.000000   0.000000   0.000000
      6       0.000000   0.000000   0.000000   0.000000   0.000000   0.000000
      7       0.000000   0.000000   0.000000   0.000000   0.000000   0.000000
      8       0.000000   0.000000   0.000000   0.000000   0.000000   0.000000
      9       0.000000   0.000000   0.000000   0.000000   0.000000   0.000000
     10       0.000000   0.000000   0.000000   0.000000   0.000000   0.000000
     11       0.000000   0.000000   0.000000   0.000000   0.000000   0.000000
     12       0.000000   0.000000   0.000000   0.000000   0.000000   0.000000
     13       0.000000   0.000000   0.000000   0.000000   0.000000   0.000000
     14       0.000000   0.000000   0.000000   0.000000   0.000000   0.000000
                  6          7          8          9         10         11    
      0      -0.082936   0.004533   0.093438   0.000000   0.000005   0.000053
      1       0.069109   0.087160   0.057081   0.000097   0.000059   0.000095
      2      -0.063097   0.089510  -0.060313   0.000087   0.000057   0.000076
      3       0.117441  -0.204518  -0.474649  -0.095432   0.426475  -0.242509
      4       0.174119  -0.094279  -0.234462  -0.013892   0.244939   0.435147
      5       0.264060  -0.459402   0.288111   0.490239   0.089292  -0.034726
      6       0.379816   0.245190  -0.082581   0.015010   0.377132  -0.328912
      7      -0.357951  -0.114294   0.147452   0.021966  -0.328436  -0.377218
      8       0.303210  -0.410464   0.321173  -0.499659  -0.003768  -0.026308
      9       0.355611  -0.280299  -0.078524  -0.014992  -0.377158   0.328428
     10      -0.328577  -0.390305  -0.319557  -0.498734  -0.014309  -0.038332
     11       0.356537  -0.136482  -0.135240   0.037990  -0.328167  -0.375611
     12       0.135370   0.185611  -0.477618   0.095410  -0.426514   0.242367
     13      -0.311068  -0.439695  -0.273595   0.489506   0.097100  -0.020728
     14      -0.171968  -0.060223   0.244626  -0.029601   0.241966   0.435744
                  12         13         14    
      0      -0.022507   0.034254   0.082311
      1       0.083542   0.037712   0.007178
      2      -0.031065   0.076537  -0.040379
      3       0.395551   0.058586  -0.126040
      4      -0.700057  -0.083271   0.259889
      5       0.050577   0.024125  -0.029441
      6      -0.297306  -0.337523  -0.342613
      7      -0.316956  -0.387462  -0.411878
      8      -0.030233  -0.010971  -0.037629
      9      -0.018609   0.245322  -0.509418
     10       0.019808  -0.019633   0.063157
     11       0.008760  -0.255272   0.594281
     12       0.188546  -0.374541  -0.002716
     13       0.001750   0.041001   0.003301
     14       0.341052  -0.669877  -0.046071


-----------
IR SPECTRUM
-----------

 Mode    freq (cm**-1)   T**2         TX         TY         TZ
-------------------------------------------------------------------
   6:      1339.83   16.652088  (  2.697100  -2.260554   2.065826)
   7:      1340.19   16.567970  ( -0.147867  -2.837752  -2.914322)
   8:      1340.98   16.534999  ( -3.035025  -1.859966   1.965744)
   9:      1558.79    0.001851  ( -0.002574  -0.029600  -0.031113)
  10:      1559.51    0.002870  ( -0.000832  -0.039000  -0.036726)
  11:      3023.20    0.000181  (  0.002676   0.009776   0.008867)
  12:      3128.36   28.512020  ( -1.322391   4.848701  -1.803719)
  13:      3128.49   28.399187  (  1.980170   2.181176   4.440787)
  14:      3128.66   27.941768  (  4.725413   0.410207  -2.333231)

The first frequency considered to be a vibration is 6
The total number of vibrations considered is 9


--------------------------
THERMOCHEMISTRY AT 298.15K
--------------------------

Temperature         ... 298.15 K
Pressure            ... 1.00 atm
Total Mass          ... 16.04 AMU

Throughout the following assumptions are being made:
  (1) The electronic state is orbitally nondegenerate
  (2) There are no thermally accessible electronically excited states
  (3) Hindered rotations indicated by low frequency modes are not
      treated as such but are treated as vibrations and this may
      cause some error
  (4) All equations used are the standard statistical mechanics
      equations for an ideal gas
  (5) All vibrations are strictly harmonic

freq.    1339.83  E(vib)   ...       0.01 
freq.    1340.19  E(vib)   ...       0.01 
freq.    1340.98  E(vib)   ...       0.01 
freq.    1558.79  E(vib)   ...       0.00 
freq.    1559.51  E(vib)   ...       0.00 
freq.    3023.20  E(vib)   ...       0.00 
freq.    3128.36  E(vib)   ...       0.00 
freq.    3128.49  E(vib)   ...       0.00 
freq.    3128.66  E(vib)   ...       0.00 

------------
INNER ENERGY
------------

The inner energy is: U= E(el) + E(ZPE) + E(vib) + E(rot) + E(trans)
    E(el)   - is the total energy from the electronic structure calculation
              = E(kin-el) + E(nuc-el) + E(el-el) + E(nuc-nuc)
    E(ZPE)  - the the zero temperature vibrational energy from the frequency calculation
    E(vib)  - the the finite temperature correction to E(ZPE) due to population
              of excited vibrational states
    E(rot)  - is the rotational thermal energy
    E(trans)- is the translational thermal energy

Summary of contributions to the inner energy U:
Electronic energy                ...    -40.49776727 Eh
Zero point energy                ...      0.04453365 Eh      27.95 kcal/mol
Thermal vibrational correction   ...      0.00003618 Eh       0.02 kcal/mol
Thermal rotational correction    ...      0.00141627 Eh       0.89 kcal/mol
Thermal translational correction ...      0.00141627 Eh       0.89 kcal/mol
-----------------------------------------------------------------------
Total thermal energy                    -40.45036489 Eh


Summary of corrections to the electronic energy:
(perhaps to be used in another calculation)
Total thermal correction                  0.00286873 Eh       1.80 kcal/mol
Non-thermal (ZPE) correction              0.04453365 Eh      27.95 kcal/mol
-----------------------------------------------------------------------
Total correction                          0.04740238 Eh      29.75 kcal/mol


--------
ENTHALPY
--------

The enthalpy is H = U + kB*T
                kB is Boltzmann's constant
Total free energy                 ...    -40.45036489 Eh 
Thermal Enthalpy correction       ...      0.00094421 Eh       0.59 kcal/mol
-----------------------------------------------------------------------
Total Enthalpy                    ...    -40.44942068 Eh


Note: Only C1 symmetry has been detected, increase convergence thresholds 
      if your molecule has a higher symmetry. Symmetry factor of 1.0 is   
      used for the rotational entropy correction. 
 

Note: Rotational entropy computed according to Herzberg 
Infrared and Raman Spectra, Chapter V,1, Van Nostrand Reinhold, 1945 
Point Group:  C1, Symmetry Number:   1  
Rotational constants in cm-1:     5.269164     5.268079     5.267009 

Vibrational entropy computed according to the QRRHO of S. Grimme
Chem.Eur.J. 2012 18 9955


-------
ENTROPY
-------

The entropy contributions are T*S = T*(S(el)+S(vib)+S(rot)+S(trans))
     S(el)   - electronic entropy
     S(vib)  - vibrational entropy
     S(rot)  - rotational entropy
     S(trans)- translational entropy
The entropies will be listed as mutliplied by the temperature to get
units of energy

Electronic entropy                ...      0.00000000 Eh      0.00 kcal/mol
Vibrational entropy               ...      0.00004162 Eh      0.03 kcal/mol
Rotational entropy                ...      0.00715744 Eh      4.49 kcal/mol
Translational entropy             ...      0.01627961 Eh     10.22 kcal/mol
-----------------------------------------------------------------------
Final entropy term                ...      0.02347867 Eh     14.73 kcal/mol

In case the symmetry of your molecule has not been determined correctly
or in case you have a reason to use a different symmetry number we print 
out the resulting rotational entropy values for sn=1,12 :
 --------------------------------------------------------
|  sn= 1 | S(rot)=       0.00715744 Eh      4.49 kcal/mol|
|  sn= 2 | S(rot)=       0.00650298 Eh      4.08 kcal/mol|
|  sn= 3 | S(rot)=       0.00612015 Eh      3.84 kcal/mol|
|  sn= 4 | S(rot)=       0.00584853 Eh      3.67 kcal/mol|
|  sn= 5 | S(rot)=       0.00563784 Eh      3.54 kcal/mol|
|  sn= 6 | S(rot)=       0.00546569 Eh      3.43 kcal/mol|
|  sn= 7 | S(rot)=       0.00532015 Eh      3.34 kcal/mol|
|  sn= 8 | S(rot)=       0.00519407 Eh      3.26 kcal/mol|
|  sn= 9 | S(rot)=       0.00508286 Eh      3.19 kcal/mol|
|  sn=10 | S(rot)=       0.00498338 Eh      3.13 kcal/mol|
|  sn=11 | S(rot)=       0.00489339 Eh      3.07 kcal/mol|
|  sn=12 | S(rot)=       0.00481124 Eh      3.02 kcal/mol|
 --------------------------------------------------------


-------------------
GIBBS FREE ENERGY
-------------------

The Gibbs free energy is G = H - T*S

Total enthalpy                    ...    -40.44942068 Eh 
Total entropy correction          ...     -0.02347867 Eh    -14.73 kcal/mol
-----------------------------------------------------------------------
Final Gibbs free energy         ...    -40.47289935 Eh

For completeness - the Gibbs free energy minus the electronic energy
G-E(el)                           ...      0.02486792 Eh     15.60 kcal/mol


Timings for individual modules:

Sum of individual times         ...       17.284 sec (=   0.288 min)
GTO integral calculation        ...        1.397 sec (=   0.023 min)   8.1 %
SCF iterations                  ...        4.514 sec (=   0.075 min)  26.1 %
SCF Gradient evaluation         ...        2.411 sec (=   0.040 min)  14.0 %
Geometry relaxation             ...        1.011 sec (=   0.017 min)   5.9 %
Analytical frequency calculation...        7.950 sec (=   0.133 min)  46.0 %
                             ****ORCA TERMINATED NORMALLY****
TOTAL RUN TIME: 0 days 0 hours 0 minutes 17 seconds 576 msec
