
                                 *****************
                                 * O   R   C   A *
                                 *****************

           --- An Ab Initio, DFT and Semiempirical electronic structure package ---

                  #######################################################
                  #                        -***-                        #
                  #          Department of theory and spectroscopy      #
                  #               Directorship: Frank Neese             #
                  #        Max Planck Institute fuer Kohlenforschung    #
                  #                Kaiser Wilhelm Platz 1               #
                  #                 D-45470 Muelheim/Ruhr               #
                  #                      Germany                        #
                  #                                                     #
                  #                  All rights reserved                #
                  #                        -***-                        #
                  #######################################################


                         Program Version 4.2.1 -  RELEASE  -


 With contributions from (in alphabetic order):
   Daniel Aravena         : Magnetic Suceptibility
   Michael Atanasov       : Ab Initio Ligand Field Theory (pilot matlab implementation)
   Alexander A. Auer      : GIAO ZORA, VPT2
   Ute Becker             : Parallelization
   Giovanni Bistoni       : ED, misc. LED, open-shell LED, HFLD
   Martin Brehm           : Molecular dynamics
   Dmytro Bykov           : SCF Hessian
   Vijay G. Chilkuri      : MRCI spin determinant printing, contributions to CSF-ICE
   Dipayan Datta          : RHF DLPNO-CCSD density
   Achintya Kumar Dutta   : EOM-CC, STEOM-CC
   Dmitry Ganyushin       : Spin-Orbit,Spin-Spin,Magnetic field MRCI
   Miquel Garcia          : C-PCM Hessian, Gaussian charge scheme
   Yang Guo               : DLPNO-NEVPT2, CIM, IAO-localization
   Andreas Hansen         : Spin unrestricted coupled pair/coupled cluster methods
   Benjamin Helmich-Paris : CASSCF linear response (MC-RPA)
   Lee Huntington         : MR-EOM, pCC
   Robert Izsak           : Overlap fitted RIJCOSX, COSX-SCS-MP3, EOM
   Christian Kollmar      : KDIIS, OOCD, Brueckner-CCSD(T), CCSD density
   Simone Kossmann        : Meta GGA functionals, TD-DFT gradient, OOMP2, MP2 Hessian
   Martin Krupicka        : AUTO-CI
   Lucas Lang             : DCDCAS
   Dagmar Lenk            : GEPOL surface, SMD
   Dimitrios Liakos       : Extrapolation schemes; Compound Job, initial MDCI parallelization
   Dimitrios Manganas     : Further ROCIS development; embedding schemes
   Dimitrios Pantazis     : SARC Basis sets
   Taras Petrenko         : DFT Hessian,TD-DFT gradient, ASA, ECA, R-Raman, ABS, FL, XAS/XES, NRVS
   Peter Pinski           : DLPNO-MP2, DLPNO-MP2 Gradient
   Christoph Reimann      : Effective Core Potentials
   Marius Retegan         : Local ZFS, SOC
   Christoph Riplinger    : Optimizer, TS searches, QM/MM, DLPNO-CCSD(T), (RO)-DLPNO pert. Triples
   Tobias Risthaus        : Range-separated hybrids, TD-DFT gradient, RPA, STAB
   Michael Roemelt        : Original ROCIS implementation
   Masaaki Saitow         : Open-shell DLPNO-CCSD energy and density
   Barbara Sandhoefer     : DKH picture change effects
   Avijit Sen             : IP-ROCIS
   Kantharuban Sivalingam : CASSCF convergence, NEVPT2, FIC-MRCI
   Bernardo de Souza      : ESD, SOC TD-DFT
   Georgi Stoychev        : AutoAux, RI-MP2 NMR
   Willem Van den Heuvel  : Paramagnetic NMR
   Boris Wezisla          : Elementary symmetry handling
   Frank Wennmohs         : Technical directorship


 We gratefully acknowledge several colleagues who have allowed us to
 interface, adapt or use parts of their codes:
   Stefan Grimme, W. Hujo, H. Kruse,             : VdW corrections, initial TS optimization,
                  C. Bannwarth                     DFT functionals, gCP, sTDA/sTD-DF
   Ed Valeev, F. Pavosevic, A. Kumar             : LibInt (2-el integral package), F12 methods
   Garnet Chan, S. Sharma, J. Yang, R. Olivares  : DMRG
   Ulf Ekstrom                                   : XCFun DFT Library
   Mihaly Kallay                                 : mrcc  (arbitrary order and MRCC methods)
   Andreas Klamt, Michael Diedenhofen            : otool_cosmo (COSMO solvation model)
   Jiri Pittner, Ondrej Demel                    : Mk-CCSD
   Frank Weinhold                                : gennbo (NPA and NBO analysis)
   Christopher J. Cramer and Donald G. Truhlar   : smd solvation model
   Lars Goerigk                                  : TD-DFT with DH, B97 family of functionals
   V. Asgeirsson, H. Jonsson                     : NEB implementation
   FAccTs GmbH                                   : IRC, NEB, NEB-TS, Multilevel, MM, QM/MM, CI optimization
   S Lehtola, MJT Oliveira, MAL Marques          : LibXC Library


 Your calculation uses the libint2 library for the computation of 2-el integrals
 For citations please refer to: http://libint.valeyev.net

 Your ORCA version has been built with support for libXC version: 4.2.3
 For citations please refer to: https://tddft.org/programs/libxc/

 This ORCA versions uses:
   CBLAS   interface :  Fast vector & matrix operations
   LAPACKE interface :  Fast linear algebra routines
   SCALAPACK package :  Parallel linear algebra routines


----- Orbital basis set information -----
Your calculation utilizes the basis: 6-311G**
   H, Li - Ne  : R. Krishnan, J. S. Binkley, R. Seeger and J. A. Pople, J. Chem. Phys. 72, 650 (1980).
   Na - Ar     : A. D. McLean and G. S. Chandler J. Chem. Phys. 72, 5639, (1980).
   K  - Ca     : J.-P. Blaudeau, M. P. McGrath, L. A. Curtiss and L. Radom, J. Chem. Phys. 107, 5016 (1997).
   Ga - Kr     : L. A. Curtiss, M. P. McGrath, J.-P. Blandeau, N. E. Davis, R. C. Binning and L. Radom, J. Chem. Phys. 103, 6104 (1995).
   Pol./Diff.
   H, Li - Cl  : T. Clark, J. Chandrasekhar and P. v. R. Schleyer, J. Comp. Chem. 4, 294 (1983).
   H - Ne      : M. J. Frisch, J. A. Pople and J. S. Binkley, J. Chem. Phys. 80, 3265 (1984).

================================================================================
                                        WARNINGS
                       Please study these warnings very carefully!
================================================================================


WARNING: Geometry Optimization
  ===> : Switching off AutoStart
         For restart on a previous wavefunction, please use MOREAD

INFO   : the flag for use of LIBINT has been found!

================================================================================
                                       INPUT FILE
================================================================================
NAME = orca.inp
|  1> !B3LYP 6-311G** OPT
|  2> 
|  3> ! FREQ
|  4> ! nofrozencore
|  5> 
|  6> %method
|  7>   Z_Tol 1e-14
|  8> end
|  9> 
| 10> *xyz 0 1
| 11> C    -1.85957    0.23989    -0.00000
| 12> O    -0.66328    0.23989    -0.00000
| 13> O    -3.05586    0.23989    -0.00001
| 14> **                         ****END OF INPUT****
================================================================================

                       *****************************
                       * Geometry Optimization Run *
                       *****************************

Geometry optimization settings:
Update method            Update   .... BFGS
Choice of coordinates    CoordSys .... Z-matrix Internals
Initial Hessian          InHess   .... Almoef's Model

Convergence Tolerances:
Energy Change            TolE     ....  5.0000e-06 Eh
Max. Gradient            TolMAXG  ....  3.0000e-04 Eh/bohr
RMS Gradient             TolRMSG  ....  1.0000e-04 Eh/bohr
Max. Displacement        TolMAXD  ....  4.0000e-03 bohr
RMS Displacement         TolRMSD  ....  2.0000e-03 bohr
Strict Convergence                ....  False
------------------------------------------------------------------------------
                        ORCA OPTIMIZATION COORDINATE SETUP
------------------------------------------------------------------------------

The optimization will be done in new redundant internal coordinates
Making redundant internal coordinates   ...  (new redundants) done
Evaluating the initial hessian          ...  (Almloef) done
Evaluating the coordinates              ...  done
Calculating the B-matrix                .... done
Calculating the G-matrix                .... done
Diagonalizing the G-matrix              .... done
The first mode is                       ....    0
The number of degrees of freedom        ....    4

    -----------------------------------------------------------------
                    Redundant Internal Coordinates


    -----------------------------------------------------------------
         Definition                    Initial Value    Approx d2E/dq
    -----------------------------------------------------------------
      1. B(O   1,C   0)                  1.1963         1.140059   
      2. B(O   2,C   0)                  1.1963         1.140059   
      3. L(O   1,C   0,O   2, 2)       180.0000         0.536171   
      4. L(O   1,C   0,O   2, 1)       180.0005         0.536171   
    -----------------------------------------------------------------

Number of atoms                         .... 3
Number of degrees of freedom            .... 4

         *************************************************************
         *                GEOMETRY OPTIMIZATION CYCLE   1            *
         *************************************************************
---------------------------------
CARTESIAN COORDINATES (ANGSTROEM)
---------------------------------
  C     -1.859570    0.239890   -0.000000
  O     -0.663280    0.239890   -0.000000
  O     -3.055860    0.239890   -0.000010

----------------------------
CARTESIAN COORDINATES (A.U.)
----------------------------
  NO LB      ZA    FRAG     MASS         X           Y           Z
   0 C     6.0000    0    12.011   -3.514078    0.453326   -0.000000
   1 O     8.0000    0    15.999   -1.253418    0.453326   -0.000000
   2 O     8.0000    0    15.999   -5.774739    0.453326   -0.000019

--------------------------------
INTERNAL COORDINATES (ANGSTROEM)
--------------------------------
 C      0   0   0     0.000000000000     0.00000000     0.00000000
 O      1   0   0     1.196290000000     0.00000000     0.00000000
 O      1   2   0     1.196290000042   179.99952106     0.00000000

---------------------------
INTERNAL COORDINATES (A.U.)
---------------------------
 C      0   0   0     0.000000000000     0.00000000     0.00000000
 O      1   0   0     2.260660476749     0.00000000     0.00000000
 O      1   2   0     2.260660476828   179.99952106     0.00000000

---------------------
BASIS SET INFORMATION
---------------------
There are 2 groups of distinct atoms

 Group   1 Type C   : 11s5p1d contracted to 4s3p1d pattern {6311/311/1}
 Group   2 Type O   : 11s5p1d contracted to 4s3p1d pattern {6311/311/1}

Atom   0C    basis set group =>   1
Atom   1O    basis set group =>   2
Atom   2O    basis set group =>   2
------------------------------------------------------------------------------
                           ORCA GTO INTEGRAL CALCULATION
------------------------------------------------------------------------------

                         BASIS SET STATISTICS AND STARTUP INFO

 # of primitive gaussian shells          ...   51
 # of primitive gaussian functions       ...   93
 # of contracted shells                  ...   24
 # of contracted basis functions         ...   54
 Highest angular momentum                ...    2
 Maximum contraction depth               ...    6
 Integral package used                   ... LIBINT
 Integral threshhold            Thresh   ...  2.500e-11
 Primitive cut-off              TCut     ...  2.500e-12


------------------------------ INTEGRAL EVALUATION ----------------------------


 * One electron integrals 
 Pre-screening matrix                    ... done
 Shell pair data                         ... done (   0.000 sec)

-------------------------------------------------------------------------------
                                 ORCA SCF
-------------------------------------------------------------------------------

------------
SCF SETTINGS
------------
Hamiltonian:
 Density Functional     Method          .... DFT(GTOs)
 Exchange Functional    Exchange        .... B88
   X-Alpha parameter    XAlpha          ....  0.666667
   Becke's b parameter  XBeta           ....  0.004200
 Correlation Functional Correlation     .... LYP
 LDA part of GGA corr.  LDAOpt          .... VWN-5
 Gradients option       PostSCFGGA      .... off
 Hybrid DFT is turned on
   Fraction HF Exchange ScalHFX         ....  0.200000
   Scaling of DF-GGA-X  ScalDFX         ....  0.720000
   Scaling of DF-GGA-C  ScalDFC         ....  0.810000
   Scaling of DF-LDA-C  ScalLDAC        ....  1.000000
   Perturbative correction              ....  0.000000
   Density functional embedding theory  .... OFF
   NL short-range parameter             ....  4.800000


General Settings:
 Integral files         IntName         .... orca
 Hartree-Fock type      HFTyp           .... RHF
 Total Charge           Charge          ....    0
 Multiplicity           Mult            ....    1
 Number of Electrons    NEL             ....   22
 Basis Dimension        Dim             ....   54
 Nuclear Repulsion      ENuc            ....     56.6206209710 Eh

Convergence Acceleration:
 DIIS                   CNVDIIS         .... on
   Start iteration      DIISMaxIt       ....    12
   Startup error        DIISStart       ....  0.200000
   # of expansion vecs  DIISMaxEq       ....     5
   Bias factor          DIISBfac        ....   1.050
   Max. coefficient     DIISMaxC        ....  10.000
 Newton-Raphson         CNVNR           .... off
 SOSCF                  CNVSOSCF        .... on
   Start iteration      SOSCFMaxIt      ....   150
   Startup grad/error   SOSCFStart      ....  0.003300
 Level Shifting         CNVShift        .... on
   Level shift para.    LevelShift      ....    0.2500
   Turn off err/grad.   ShiftErr        ....    0.0010
 Zerner damping         CNVZerner       .... off
 Static damping         CNVDamp         .... on
   Fraction old density DampFac         ....    0.7000
   Max. Damping (<1)    DampMax         ....    0.9800
   Min. Damping (>=0)   DampMin         ....    0.0000
   Turn off err/grad.   DampErr         ....    0.1000
 Fernandez-Rico         CNVRico         .... off

SCF Procedure:
 Maximum # iterations   MaxIter         ....   125
 SCF integral mode      SCFMode         .... Direct
   Integral package                     .... LIBINT
 Reset frequency        DirectResetFreq ....    20
 Integral Threshold     Thresh          ....  2.500e-11 Eh
 Primitive CutOff       TCut            ....  2.500e-12 Eh

Convergence Tolerance:
 Convergence Check Mode ConvCheckMode   .... Total+1el-Energy
 Convergence forced     ConvForced      .... 0
 Energy Change          TolE            ....  1.000e-08 Eh
 1-El. energy change                    ....  1.000e-05 Eh
 Orbital Gradient       TolG            ....  1.000e-05
 Orbital Rotation angle TolX            ....  1.000e-05
 DIIS Error             TolErr          ....  5.000e-07


Diagonalization of the overlap matrix:
Smallest eigenvalue                        ... 8.801e-03
Time for diagonalization                   ...    0.076 sec
Threshold for overlap eigenvalues          ... 1.000e-08
Number of eigenvalues below threshold      ... 0
Time for construction of square roots      ...    0.000 sec
Total time needed                          ...    0.076 sec

-------------------
DFT GRID GENERATION
-------------------

General Integration Accuracy     IntAcc      ...  4.340
Radial Grid Type                 RadialGrid  ... Gauss-Chebyshev
Angular Grid (max. acc.)         AngularGrid ... Lebedev-110
Angular grid pruning method      GridPruning ... 3 (G Style)
Weight generation scheme         WeightScheme... Becke
Basis function cutoff            BFCut       ...    1.0000e-11
Integration weight cutoff        WCut        ...    1.0000e-14
Grids for H and He will be reduced by one unit

# of grid points (after initial pruning)     ...   5088 (   0.0 sec)
# of grid points (after weights+screening)   ...   5034 (   0.0 sec)
nearest neighbour list constructed           ...    0.0 sec
Grid point re-assignment to atoms done       ...    0.0 sec
Grid point division into batches done        ...    0.0 sec
Reduced shell lists constructed in    0.0 sec

Total number of grid points                  ...     5034
Total number of batches                      ...       81
Average number of points per batch           ...       62
Average number of grid points per atom       ...     1678
Average number of shells per batch           ...    18.72 (78.00%)
Average number of basis functions per batch  ...    43.52 (80.60%)
Average number of large shells per batch     ...    16.39 (87.56%)
Average number of large basis fcns per batch ...    38.61 (88.71%)
Maximum spatial batch extension              ...  17.79, 25.60, 31.36 au
Average spatial batch extension              ...   4.44,  6.27,  6.08 au

Time for grid setup =    0.025 sec

------------------------------
INITIAL GUESS: MODEL POTENTIAL
------------------------------
Loading Hartree-Fock densities                     ... done
Calculating cut-offs                               ... done
Setting up the integral package                    ... done
Initializing the effective Hamiltonian             ... done
Starting the Coulomb interaction                   ... done (   0.0 sec)
Reading the grid                                   ... done
Mapping shells                                     ... done
Starting the XC term evaluation                    ... done (   0.0 sec)
  promolecular density results
     # of electrons  =     22.000127090
     EX              =    -21.475897893
     EC              =     -0.784840745
     EX+EC           =    -22.260738638
Transforming the Hamiltonian                       ... done (   0.0 sec)
Diagonalizing the Hamiltonian                      ... done (   0.0 sec)
Back transforming the eigenvectors                 ... done (   0.0 sec)
Now organizing SCF variables                       ... done
                      ------------------
                      INITIAL GUESS DONE (   0.2 sec)
                      ------------------
--------------
SCF ITERATIONS
--------------
ITER       Energy         Delta-E        Max-DP      RMS-DP      [F,P]     Damp
               ***  Starting incremental Fock matrix formation  ***
  0   -188.4217302440   0.000000000000 0.07680036  0.00377071  0.2630785 0.7000
  1   -188.4904960699  -0.068765825976 0.02607791  0.00177992  0.0955740 0.7000
                               ***Turning on DIIS***
  2   -188.5083914643  -0.017895394383 0.01589535  0.00145381  0.0225730 0.0000
  3   -188.5489286257  -0.040537161365 0.01748583  0.00101107  0.0437269 0.0000
  4   -188.5534897021  -0.004561076415 0.00945217  0.00033222  0.0068154 0.0000
                      *** Initiating the SOSCF procedure ***
                           *** Shutting down DIIS ***
                      *** Re-Reading the Fockian *** 
                      *** Removing any level shift *** 
ITER      Energy       Delta-E        Grad      Rot      Max-DP    RMS-DP
  5   -188.55366232  -0.0001726166  0.000584  0.000584  0.001401  0.000062
               *** Restarting incremental Fock matrix formation ***
  6   -188.55366649  -0.0000041687  0.000226  0.000210  0.000757  0.000026
  7   -188.55366647   0.0000000188  0.000264  0.000235  0.000149  0.000011
  8   -188.55366683  -0.0000003611  0.000036  0.000049  0.000098  0.000005
  9   -188.55366684  -0.0000000113  0.000018  0.000012  0.000037  0.000002
 10   -188.55366684  -0.0000000028  0.000003  0.000005  0.000004  0.000000
                 **** Energy Check signals convergence ****
              ***Rediagonalizing the Fockian in SOSCF/NRSCF***

               *****************************************************
               *                     SUCCESS                       *
               *           SCF CONVERGED AFTER  11 CYCLES          *
               *****************************************************

Setting up the final grid:

General Integration Accuracy     IntAcc      ...  4.670
Radial Grid Type                 RadialGrid  ... Gauss-Chebyshev
Angular Grid (max. acc.)         AngularGrid ... Lebedev-302
Angular grid pruning method      GridPruning ... 3 (G Style)
Weight generation scheme         WeightScheme... Becke
Basis function cutoff            BFCut       ...    1.0000e-11
Integration weight cutoff        WCut        ...    1.0000e-14
Grids for H and He will be reduced by one unit

# of grid points (after initial pruning)     ...  18636 (   0.0 sec)
# of grid points (after weights+screening)   ...  18448 (   0.0 sec)
nearest neighbour list constructed           ...    0.0 sec
Grid point re-assignment to atoms done       ...    0.0 sec
Grid point division into batches done        ...    0.1 sec
Reduced shell lists constructed in    0.1 sec

Total number of grid points                  ...    18448
Total number of batches                      ...      290
Average number of points per batch           ...       63
Average number of grid points per atom       ...     6149
Average number of shells per batch           ...    16.93 (70.56%)
Average number of basis functions per batch  ...    39.41 (72.98%)
Average number of large shells per batch     ...    14.39 (84.96%)
Average number of large basis fcns per batch ...    33.73 (85.59%)
Maximum spatial batch extension              ...  15.78, 19.94, 19.94 au
Average spatial batch extension              ...   3.04,  3.98,  4.10 au

Final grid set up in    0.1 sec
Final integration                            ... done (   0.1 sec)
Change in XC energy                          ...    -0.000074559
Integrated number of electrons               ...    22.000003883
Previous integrated no of electrons          ...    21.999871411

----------------
TOTAL SCF ENERGY
----------------

Total Energy       :         -188.55374140 Eh           -5130.80815 eV

Components:
Nuclear Repulsion  :           56.62062097 Eh            1540.72543 eV
Electronic Energy  :         -245.17436237 Eh           -6671.53357 eV
One Electron Energy:         -369.55908285 Eh          -10056.21389 eV
Two Electron Energy:          124.38472048 Eh            3384.68032 eV

Virial components:
Potential Energy   :         -376.40502658 Eh          -10242.50149 eV
Kinetic Energy     :          187.85128517 Eh            5111.69334 eV
Virial Ratio       :            2.00373943


DFT components:
N(Alpha)           :       11.000001941451 electrons
N(Beta)            :       11.000001941451 electrons
N(Total)           :       22.000003882901 electrons
E(X)               :      -17.203894588803 Eh       
E(C)               :       -0.927914528151 Eh       
E(XC)              :      -18.131809116954 Eh       
DFET-embed. en.    :        0.000000000000 Eh       

---------------
SCF CONVERGENCE
---------------

  Last Energy change         ...   -9.8680e-11  Tolerance :   1.0000e-08
  Last MAX-Density change    ...    1.0009e-06  Tolerance :   1.0000e-07
  Last RMS-Density change    ...    8.0629e-08  Tolerance :   5.0000e-09
  Last Orbital Gradient      ...    5.1907e-07  Tolerance :   1.0000e-05
  Last Orbital Rotation      ...    9.0248e-07  Tolerance :   1.0000e-05

             **** THE GBW FILE WAS UPDATED (orca.gbw) ****
             **** DENSITY FILE WAS UPDATED (orca.scfp) ****
             **** ENERGY FILE WAS UPDATED (orca.en.tmp) ****
             **** THE GBW FILE WAS UPDATED (orca.gbw) ****
             **** DENSITY FILE WAS UPDATED (orca.scfp) ****
----------------
ORBITAL ENERGIES
----------------

  NO   OCC          E(Eh)            E(eV) 
   0   2.0000     -19.207573      -522.6646 
   1   2.0000     -19.207567      -522.6645 
   2   2.0000     -10.370580      -282.1978 
   3   2.0000      -1.148934       -31.2641 
   4   2.0000      -1.109421       -30.1889 
   5   2.0000      -0.569233       -15.4896 
   6   2.0000      -0.519628       -14.1398 
   7   2.0000      -0.506544       -13.7838 
   8   2.0000      -0.506544       -13.7838 
   9   2.0000      -0.372464       -10.1353 
  10   2.0000      -0.372464       -10.1353 
  11   0.0000       0.008388         0.2282 
  12   0.0000       0.008388         0.2282 
  13   0.0000       0.052302         1.4232 
  14   0.0000       0.307125         8.3573 
  15   0.0000       0.357552         9.7295 
  16   0.0000       0.357552         9.7295 
  17   0.0000       0.461219        12.5504 
  18   0.0000       0.624356        16.9896 
  19   0.0000       0.699699        19.0398 
  20   0.0000       0.749511        20.3952 
  21   0.0000       0.749511        20.3952 
  22   0.0000       0.919153        25.0114 
  23   0.0000       0.919153        25.0114 
  24   0.0000       0.925901        25.1951 
  25   0.0000       1.192672        32.4543 
  26   0.0000       1.192806        32.4579 
  27   0.0000       1.253413        34.1071 
  28   0.0000       1.353661        36.8350 
  29   0.0000       1.353661        36.8350 
  30   0.0000       1.555109        42.3167 
  31   0.0000       2.414503        65.7020 
  32   0.0000       2.414503        65.7020 
  33   0.0000       2.505380        68.1749 
  34   0.0000       2.740988        74.5861 
  35   0.0000       2.741225        74.5925 
  36   0.0000       2.831748        77.0558 
  37   0.0000       2.831958        77.0615 
  38   0.0000       3.043839        82.8271 
  39   0.0000       3.043839        82.8271 
  40   0.0000       3.121130        84.9303 
  41   0.0000       3.545310        96.4728 
  42   0.0000       3.545310        96.4728 
  43   0.0000       3.553002        96.6821 
  44   0.0000       3.589054        97.6631 
  45   0.0000       4.817666       131.0954 
  46   0.0000       4.817666       131.0954 
  47   0.0000       4.858990       132.2198 
  48   0.0000       4.858990       132.2198 
  49   0.0000       5.431113       147.7881 
  50   0.0000       5.469786       148.8405 
  51   0.0000      24.135376       656.7570 
  52   0.0000      49.802217      1355.1872 
  53   0.0000      49.944144      1359.0492 

                    ********************************
                    * MULLIKEN POPULATION ANALYSIS *
                    ********************************

-----------------------
MULLIKEN ATOMIC CHARGES
-----------------------
   0 C :    0.504481
   1 O :   -0.252240
   2 O :   -0.252240
Sum of atomic charges:   -0.0000000

--------------------------------
MULLIKEN REDUCED ORBITAL CHARGES
--------------------------------
  0 C s       :     2.951799  s :     2.951799
      pz      :     0.808102  p :     2.343625
      px      :     0.727422
      py      :     0.808102
      dz2     :     0.010742  d :     0.200095
      dxz     :     0.078563
      dyz     :     0.000000
      dx2y2   :     0.032227
      dxy     :     0.078563
  1 O s       :     3.844843  s :     3.844843
      pz      :     1.551380  p :     4.387748
      px      :     1.284989
      py      :     1.551380
      dz2     :     0.002268  d :     0.019649
      dxz     :     0.005288
      dyz     :     0.000000
      dx2y2   :     0.006804
      dxy     :     0.005288
  2 O s       :     3.844843  s :     3.844843
      pz      :     1.551380  p :     4.387748
      px      :     1.284989
      py      :     1.551380
      dz2     :     0.002268  d :     0.019649
      dxz     :     0.005288
      dyz     :     0.000000
      dx2y2   :     0.006804
      dxy     :     0.005288


                     *******************************
                     * LOEWDIN POPULATION ANALYSIS *
                     *******************************

----------------------
LOEWDIN ATOMIC CHARGES
----------------------
   0 C :   -0.005915
   1 O :    0.002957
   2 O :    0.002957

-------------------------------
LOEWDIN REDUCED ORBITAL CHARGES
-------------------------------
  0 C s       :     2.829710  s :     2.829710
      pz      :     0.819606  p :     2.758875
      px      :     1.119663
      py      :     0.819606
      dz2     :     0.032203  d :     0.417330
      dxz     :     0.144258
      dyz     :     0.000000
      dx2y2   :     0.096610
      dxy     :     0.144258
  1 O s       :     3.507866  s :     3.507866
      pz      :     1.512676  p :     4.462240
      px      :     1.436889
      py      :     1.512676
      dz2     :     0.004038  d :     0.026936
      dxz     :     0.005392
      dyz     :     0.000000
      dx2y2   :     0.012114
      dxy     :     0.005392
  2 O s       :     3.507866  s :     3.507866
      pz      :     1.512676  p :     4.462240
      px      :     1.436889
      py      :     1.512676
      dz2     :     0.004038  d :     0.026936
      dxz     :     0.005392
      dyz     :     0.000000
      dx2y2   :     0.012114
      dxy     :     0.005392


                      *****************************
                      * MAYER POPULATION ANALYSIS *
                      *****************************

  NA   - Mulliken gross atomic population
  ZA   - Total nuclear charge
  QA   - Mulliken gross atomic charge
  VA   - Mayer's total valence
  BVA  - Mayer's bonded valence
  FA   - Mayer's free valence

  ATOM       NA         ZA         QA         VA         BVA        FA
  0 C      5.4955     6.0000     0.5045     4.1629     4.1629    -0.0000
  1 O      8.2522     8.0000    -0.2522     2.3105     2.3105    -0.0000
  2 O      8.2522     8.0000    -0.2522     2.3105     2.3105     0.0000

  Mayer bond orders larger than 0.100000
B(  0-C ,  1-O ) :   2.0815 B(  0-C ,  2-O ) :   2.0815 B(  1-O ,  2-O ) :   0.2291 


-------
TIMINGS
-------

Total SCF time: 0 days 0 hours 0 min 2 sec 

Total time                  ....       2.432 sec
Sum of individual times     ....       2.185 sec  ( 89.9%)

Fock matrix formation       ....       1.906 sec  ( 78.4%)
  XC integration            ....       0.302 sec  ( 15.8% of F)
    Basis function eval.    ....       0.120 sec  ( 39.9% of XC)
    Density eval.           ....       0.046 sec  ( 15.2% of XC)
    XC-Functional eval.     ....       0.060 sec  ( 19.9% of XC)
    XC-Potential eval.      ....       0.060 sec  ( 19.8% of XC)
Diagonalization             ....       0.003 sec  (  0.1%)
Density matrix formation    ....       0.000 sec  (  0.0%)
Population analysis         ....       0.001 sec  (  0.0%)
Initial guess               ....       0.130 sec  (  5.3%)
Orbital Transformation      ....       0.000 sec  (  0.0%)
Orbital Orthonormalization  ....       0.000 sec  (  0.0%)
DIIS solution               ....       0.001 sec  (  0.0%)
SOSCF solution              ....       0.001 sec  (  0.1%)
Grid generation             ....       0.143 sec  (  5.9%)

-------------------------   --------------------
FINAL SINGLE POINT ENERGY      -188.553741403036
-------------------------   --------------------

------------------------------------------------------------------------------
                         ORCA SCF GRADIENT CALCULATION
------------------------------------------------------------------------------

Gradient of the Kohn-Sham DFT energy:
Kohn-Sham wavefunction type      ... RKS
Hartree-Fock exchange scaling    ...    0.200
Number of operators              ...    1
Number of atoms                  ...    3
Basis set dimensions             ...   54
Integral neglect threshold       ... 2.5e-11
Integral primitive cutoff        ... 2.5e-12

Nuclear repulsion gradient       ... done
One Electron Gradient            ... done
Pre-screening matrix             ... done
Starting the two electron gradient:
Two electron gradient done
Exchange-correlation gradient    ... done

------------------
CARTESIAN GRADIENT
------------------

   1   C   :   -0.000000001    0.000000000    0.000001737
   2   O   :    0.067947659   -0.000000000   -0.000000585
   3   O   :   -0.067947658    0.000000000   -0.000001151

Difference to translation invariance:
           :   -0.0000000000    0.0000000000    0.0000000000

Norm of the cartesian gradient     ...    0.0960925006
RMS gradient                       ...    0.0320308335
MAX gradient                       ...    0.0679476591

-------
TIMINGS
-------

Total SCF gradient time            ...        0.650 sec

One electron gradient       ....       0.004 sec  (  0.6%)
Prescreening matrices       ....       0.015 sec  (  2.3%)
Two electron gradient       ....       0.299 sec  ( 46.1%)
XC gradient                 ....       0.225 sec  ( 34.7%)
------------------------------------------------------------------------------
                         ORCA GEOMETRY RELAXATION STEP
------------------------------------------------------------------------------

Reading the OPT-File                    .... done
Getting information on internals        .... done
Copying old internal coords+grads       .... done
Making the new internal coordinates     .... (new redundants).... done
Validating the new internal coordinates .... (new redundants).... done
Calculating the B-matrix                .... done
Calculating the G,G- and P matrices     .... done
Transforming gradient to internals      .... done
Projecting the internal gradient        .... done
Number of atoms                         ....   3
Number of internal coordinates          ....   4
Current Energy                          ....  -188.553741403 Eh
Current gradient norm                   ....     0.096092501 Eh/bohr
Maximum allowed component of the step   ....  0.300
Current trust radius                    ....  0.300
Evaluating the initial hessian          ....  (Almloef) done
Projecting the Hessian                  .... done
Forming the augmented Hessian           .... done
Diagonalizing the augmented Hessian     .... done
Last element of RFO vector              ....  0.996515715
Lowest eigenvalues of augmented Hessian:
 -0.008042639  0.536171482  0.536171482  1.140059219
Length of the computed step             ....  0.083696843
The final length of the internal step   ....  0.083696843
Converting the step to cartesian space:
 Initial RMS(Int)=    0.0418484213
Transforming coordinates:
 Iter   0:  RMS(Cart)=    0.0278989476 RMS(Int)=    0.0418484213
 Iter   1:  RMS(Cart)=    0.0000000797 RMS(Int)=    0.0000001331
done
Storing new coordinates                 .... done

                                .--------------------.
          ----------------------|Geometry convergence|-------------------------
          Item                value                   Tolerance       Converged
          ---------------------------------------------------------------------
          RMS gradient        0.0480462503            0.0001000000      NO
          MAX gradient        0.0679476591            0.0003000000      NO
          RMS step            0.0418484213            0.0020000000      NO
          MAX step            0.0591826053            0.0040000000      NO
          ........................................................
          Max(Bonds)      0.0313      Max(Angles)    0.00
          Max(Dihed)        0.00      Max(Improp)    0.00
          ---------------------------------------------------------------------

The optimization has not yet converged - more geometry cycles are needed


    ---------------------------------------------------------------------------
                         Redundant Internal Coordinates
                            (Angstroem and degrees)

        Definition                    Value    dE/dq     Step     New-Value
    ----------------------------------------------------------------------------
     1. B(O   1,C   0)                1.1963  0.067948 -0.0313    1.1650   
     2. B(O   2,C   0)                1.1963  0.067948 -0.0313    1.1650   
     3. L(O   1,C   0,O   2, 2)       180.00 -0.000000    0.00    180.00   
     4. L(O   1,C   0,O   2, 1)       180.00  0.000001   -0.00    180.00   
    ----------------------------------------------------------------------------

         *************************************************************
         *                GEOMETRY OPTIMIZATION CYCLE   2            *
         *************************************************************
---------------------------------
CARTESIAN COORDINATES (ANGSTROEM)
---------------------------------
  C     -1.859570    0.239890   -0.000000
  O     -0.694598    0.239890    0.000000
  O     -3.024542    0.239890   -0.000010

----------------------------
CARTESIAN COORDINATES (A.U.)
----------------------------
  NO LB      ZA    FRAG     MASS         X           Y           Z
   0 C     6.0000    0    12.011   -3.514078    0.453326   -0.000001
   1 O     8.0000    0    15.999   -1.312600    0.453326    0.000000
   2 O     8.0000    0    15.999   -5.715556    0.453326   -0.000018

--------------------------------
INTERNAL COORDINATES (ANGSTROEM)
--------------------------------
 C      0   0   0     0.000000000000     0.00000000     0.00000000
 O      1   0   0     1.164971914127     0.00000000     0.00000000
 O      1   2   0     1.164971914518   179.99956425     0.00000000

---------------------------
INTERNAL COORDINATES (A.U.)
---------------------------
 C      0   0   0     0.000000000000     0.00000000     0.00000000
 O      1   0   0     2.201477871409     0.00000000     0.00000000
 O      1   2   0     2.201477872148   179.99956425     0.00000000


Diagonalization of the overlap matrix:
Smallest eigenvalue                        ... 8.250e-03
Time for diagonalization                   ...    0.001 sec
Threshold for overlap eigenvalues          ... 1.000e-08
Number of eigenvalues below threshold      ... 0
Time for construction of square roots      ...    0.000 sec
Total time needed                          ...    0.001 sec

-------------------
DFT GRID GENERATION
-------------------

General Integration Accuracy     IntAcc      ...  4.340
Radial Grid Type                 RadialGrid  ... Gauss-Chebyshev
Angular Grid (max. acc.)         AngularGrid ... Lebedev-110
Angular grid pruning method      GridPruning ... 3 (G Style)
Weight generation scheme         WeightScheme... Becke
Basis function cutoff            BFCut       ...    1.0000e-11
Integration weight cutoff        WCut        ...    1.0000e-14
Grids for H and He will be reduced by one unit

# of grid points (after initial pruning)     ...   5088 (   0.0 sec)
# of grid points (after weights+screening)   ...   5034 (   0.0 sec)
nearest neighbour list constructed           ...    0.0 sec
Grid point re-assignment to atoms done       ...    0.0 sec
Grid point division into batches done        ...    0.0 sec
Reduced shell lists constructed in    0.0 sec

Total number of grid points                  ...     5034
Total number of batches                      ...       81
Average number of points per batch           ...       62
Average number of grid points per atom       ...     1678
Average number of shells per batch           ...    18.85 (78.56%)
Average number of basis functions per batch  ...    43.85 (81.21%)
Average number of large shells per batch     ...    16.65 (88.29%)
Average number of large basis fcns per batch ...    39.01 (88.96%)
Maximum spatial batch extension              ...  17.85, 25.60, 31.36 au
Average spatial batch extension              ...   4.35,  6.26,  5.61 au

Time for grid setup =    0.024 sec

--------------
SCF ITERATIONS
--------------
ITER       Energy         Delta-E        Max-DP      RMS-DP      [F,P]     Damp
               ***  Starting incremental Fock matrix formation  ***
  0   -188.5569727478   0.000000000000 0.00329125  0.00024359  0.0244945 0.7000
                      *** Initiating the SOSCF procedure ***
                      *** Re-Reading the Fockian *** 
                      *** Removing any level shift *** 
ITER      Energy       Delta-E        Grad      Rot      Max-DP    RMS-DP
  1   -188.55741400  -0.0004412567  0.002630  0.002630  0.011812  0.000720
               *** Restarting incremental Fock matrix formation ***
  2   -188.55827133  -0.0008573252  0.003215  0.002858  0.007457  0.000401
  3   -188.55830966  -0.0000383300  0.002522  0.001216  0.002332  0.000134
  4   -188.55834768  -0.0000380234  0.000734  0.001113  0.002104  0.000070
  5   -188.55834516   0.0000025208  0.000895  0.000612  0.001371  0.000046
  6   -188.55835029  -0.0000051324  0.000005  0.000003  0.000004  0.000000
                 **** Energy Check signals convergence ****
              ***Rediagonalizing the Fockian in SOSCF/NRSCF***

               *****************************************************
               *                     SUCCESS                       *
               *           SCF CONVERGED AFTER   7 CYCLES          *
               *****************************************************

Setting up the final grid:

General Integration Accuracy     IntAcc      ...  4.670
Radial Grid Type                 RadialGrid  ... Gauss-Chebyshev
Angular Grid (max. acc.)         AngularGrid ... Lebedev-302
Angular grid pruning method      GridPruning ... 3 (G Style)
Weight generation scheme         WeightScheme... Becke
Basis function cutoff            BFCut       ...    1.0000e-11
Integration weight cutoff        WCut        ...    1.0000e-14
Grids for H and He will be reduced by one unit

# of grid points (after initial pruning)     ...  18636 (   0.0 sec)
# of grid points (after weights+screening)   ...  18446 (   0.0 sec)
nearest neighbour list constructed           ...    0.0 sec
Grid point re-assignment to atoms done       ...    0.0 sec
Grid point division into batches done        ...    0.1 sec
Reduced shell lists constructed in    0.1 sec

Total number of grid points                  ...    18446
Total number of batches                      ...      290
Average number of points per batch           ...       63
Average number of grid points per atom       ...     6149
Average number of shells per batch           ...    16.99 (70.78%)
Average number of basis functions per batch  ...    39.57 (73.28%)
Average number of large shells per batch     ...    14.52 (85.49%)
Average number of large basis fcns per batch ...    34.05 (86.04%)
Maximum spatial batch extension              ...  15.84, 19.94, 19.94 au
Average spatial batch extension              ...   3.05,  4.01,  4.08 au

Final grid set up in    0.1 sec
Final integration                            ... done (   0.1 sec)
Change in XC energy                          ...    -0.000082110
Integrated number of electrons               ...    21.999994898
Previous integrated no of electrons          ...    21.999872800
Total Energy       :         -188.55843241 Eh           -5130.93580 eV
  Last Energy change         ...   -2.3078e-10  Tolerance :   1.0000e-08
  Last MAX-Density change    ...    5.6160e-07  Tolerance :   1.0000e-07
             **** THE GBW FILE WAS UPDATED (orca.gbw) ****
             **** DENSITY FILE WAS UPDATED (orca.scfp) ****
             **** ENERGY FILE WAS UPDATED (orca.en.tmp) ****
             **** THE GBW FILE WAS UPDATED (orca.gbw) ****
             **** DENSITY FILE WAS UPDATED (orca.scfp) ****
Total SCF time: 0 days 0 hours 0 min 1 sec 

-------------------------   --------------------
FINAL SINGLE POINT ENERGY      -188.558432405262
-------------------------   --------------------

------------------------------------------------------------------------------
                         ORCA SCF GRADIENT CALCULATION
------------------------------------------------------------------------------

Gradient of the Kohn-Sham DFT energy:
Kohn-Sham wavefunction type      ... RKS
Hartree-Fock exchange scaling    ...    0.200
Number of operators              ...    1
Number of atoms                  ...    3
Basis set dimensions             ...   54
Integral neglect threshold       ... 2.5e-11
Integral primitive cutoff        ... 2.5e-12

Nuclear repulsion gradient       ... done
One Electron Gradient            ... done
Pre-screening matrix             ... done
Starting the two electron gradient:
Two electron gradient done
Exchange-correlation gradient    ... done

------------------
CARTESIAN GRADIENT
------------------

   1   C   :    0.000000001    0.000000000    0.000001271
   2   O   :    0.009120642   -0.000000000   -0.000000598
   3   O   :   -0.009120643    0.000000000   -0.000000673

Difference to translation invariance:
           :   -0.0000000000    0.0000000000    0.0000000000

Norm of the cartesian gradient     ...    0.0128985365
RMS gradient                       ...    0.0042995122
MAX gradient                       ...    0.0091206430

-------
TIMINGS
-------

Total SCF gradient time            ...        0.622 sec

One electron gradient       ....       0.004 sec  (  0.6%)
Prescreening matrices       ....       0.015 sec  (  2.4%)
Two electron gradient       ....       0.288 sec  ( 46.4%)
XC gradient                 ....       0.216 sec  ( 34.7%)
------------------------------------------------------------------------------
                         ORCA GEOMETRY RELAXATION STEP
------------------------------------------------------------------------------

Reading the OPT-File                    .... done
Getting information on internals        .... done
Copying old internal coords+grads       .... done
Making the new internal coordinates     .... (new redundants).... done
Validating the new internal coordinates .... (new redundants).... done
Calculating the B-matrix                .... done
Calculating the G,G- and P matrices     .... done
Transforming gradient to internals      .... done
Projecting the internal gradient        .... done
Number of atoms                         ....   3
Number of internal coordinates          ....   4
Current Energy                          ....  -188.558432405 Eh
Current gradient norm                   ....     0.012898536 Eh/bohr
Maximum allowed component of the step   ....  0.300
Current trust radius                    ....  0.300
Updating the Hessian (BFGS)             .... done
Forming the augmented Hessian           .... done
Diagonalizing the augmented Hessian     .... done
Last element of RFO vector              ....  0.999915844
Lowest eigenvalues of augmented Hessian:
 -0.000167350  0.536171482  0.536171482  0.994159017
Length of the computed step             ....  0.012974319
The final length of the internal step   ....  0.012974319
Converting the step to cartesian space:
 Initial RMS(Int)=    0.0064871596
Transforming coordinates:
 Iter   0:  RMS(Cart)=    0.0043247731 RMS(Int)=    0.0064871596
 Iter   1:  RMS(Cart)=    0.0000000921 RMS(Int)=    0.0000001553
done
Storing new coordinates                 .... done

                                .--------------------.
          ----------------------|Geometry convergence|-------------------------
          Item                value                   Tolerance       Converged
          ---------------------------------------------------------------------
          Energy change      -0.0046910022            0.0000050000      NO
          RMS gradient        0.0064492682            0.0001000000      NO
          MAX gradient        0.0091206430            0.0003000000      NO
          RMS step            0.0064871596            0.0020000000      NO
          MAX step            0.0091742295            0.0040000000      NO
          ........................................................
          Max(Bonds)      0.0049      Max(Angles)    0.00
          Max(Dihed)        0.00      Max(Improp)    0.00
          ---------------------------------------------------------------------

The optimization has not yet converged - more geometry cycles are needed


    ---------------------------------------------------------------------------
                         Redundant Internal Coordinates
                            (Angstroem and degrees)

        Definition                    Value    dE/dq     Step     New-Value
    ----------------------------------------------------------------------------
     1. B(O   1,C   0)                1.1650  0.009121 -0.0049    1.1601   
     2. B(O   2,C   0)                1.1650  0.009121 -0.0049    1.1601   
     3. L(O   1,C   0,O   2, 2)       180.00 -0.000000    0.00    180.00   
     4. L(O   1,C   0,O   2, 1)       180.00  0.000001   -0.00    180.00   
    ----------------------------------------------------------------------------

         *************************************************************
         *                GEOMETRY OPTIMIZATION CYCLE   3            *
         *************************************************************
---------------------------------
CARTESIAN COORDINATES (ANGSTROEM)
---------------------------------
  C     -1.859570    0.239890   -0.000001
  O     -0.699453    0.239890    0.000000
  O     -3.019687    0.239890   -0.000009

----------------------------
CARTESIAN COORDINATES (A.U.)
----------------------------
  NO LB      ZA    FRAG     MASS         X           Y           Z
   0 C     6.0000    0    12.011   -3.514078    0.453326   -0.000001
   1 O     8.0000    0    15.999   -1.321774    0.453326    0.000000
   2 O     8.0000    0    15.999   -5.706382    0.453326   -0.000018

--------------------------------
INTERNAL COORDINATES (ANGSTROEM)
--------------------------------
 C      0   0   0     0.000000000000     0.00000000     0.00000000
 O      1   0   0     1.160117121439     0.00000000     0.00000000
 O      1   2   0     1.160117121342   179.99961434     0.00000000

---------------------------
INTERNAL COORDINATES (A.U.)
---------------------------
 C      0   0   0     0.000000000000     0.00000000     0.00000000
 O      1   0   0     2.192303642794     0.00000000     0.00000000
 O      1   2   0     2.192303642610   179.99961434     0.00000000


Diagonalization of the overlap matrix:
Smallest eigenvalue                        ... 8.167e-03
Time for diagonalization                   ...    0.001 sec
Threshold for overlap eigenvalues          ... 1.000e-08
Number of eigenvalues below threshold      ... 0
Time for construction of square roots      ...    0.000 sec
Total time needed                          ...    0.001 sec

-------------------
DFT GRID GENERATION
-------------------

General Integration Accuracy     IntAcc      ...  4.340
Radial Grid Type                 RadialGrid  ... Gauss-Chebyshev
Angular Grid (max. acc.)         AngularGrid ... Lebedev-110
Angular grid pruning method      GridPruning ... 3 (G Style)
Weight generation scheme         WeightScheme... Becke
Basis function cutoff            BFCut       ...    1.0000e-11
Integration weight cutoff        WCut        ...    1.0000e-14
Grids for H and He will be reduced by one unit

# of grid points (after initial pruning)     ...   5088 (   0.0 sec)
# of grid points (after weights+screening)   ...   5034 (   0.0 sec)
nearest neighbour list constructed           ...    0.0 sec
Grid point re-assignment to atoms done       ...    0.0 sec
Grid point division into batches done        ...    0.0 sec
Reduced shell lists constructed in    0.0 sec

Total number of grid points                  ...     5034
Total number of batches                      ...       81
Average number of points per batch           ...       62
Average number of grid points per atom       ...     1678
Average number of shells per batch           ...    18.83 (78.46%)
Average number of basis functions per batch  ...    43.85 (81.21%)
Average number of large shells per batch     ...    16.70 (88.67%)
Average number of large basis fcns per batch ...    39.21 (89.40%)
Maximum spatial batch extension              ...  17.86, 25.60, 31.36 au
Average spatial batch extension              ...   4.16,  6.28,  5.62 au

Time for grid setup =    0.024 sec

--------------
SCF ITERATIONS
--------------
ITER       Energy         Delta-E        Max-DP      RMS-DP      [F,P]     Damp
               ***  Starting incremental Fock matrix formation  ***
                      *** Initiating the SOSCF procedure ***
                      *** Re-Reading the Fockian *** 
                      *** Removing any level shift *** 
ITER      Energy       Delta-E        Grad      Rot      Max-DP    RMS-DP
  0   -188.55838820 -188.5583881966  0.002325  0.002325  0.001686  0.000128
               *** Restarting incremental Fock matrix formation ***
  1   -188.55841887  -0.0000306724  0.000650  0.000702  0.001574  0.000089
  2   -188.55842068  -0.0000018113  0.000528  0.000297  0.000392  0.000027
  3   -188.55842222  -0.0000015365  0.000221  0.000248  0.000608  0.000021
  4   -188.55842225  -0.0000000376  0.000152  0.000097  0.000305  0.000011
  5   -188.55842248  -0.0000002287  0.000005  0.000003  0.000004  0.000000
                  ***Gradient check signals convergence***
              ***Rediagonalizing the Fockian in SOSCF/NRSCF***

               *****************************************************
               *                     SUCCESS                       *
               *           SCF CONVERGED AFTER   6 CYCLES          *
               *****************************************************

Setting up the final grid:

General Integration Accuracy     IntAcc      ...  4.670
Radial Grid Type                 RadialGrid  ... Gauss-Chebyshev
Angular Grid (max. acc.)         AngularGrid ... Lebedev-302
Angular grid pruning method      GridPruning ... 3 (G Style)
Weight generation scheme         WeightScheme... Becke
Basis function cutoff            BFCut       ...    1.0000e-11
Integration weight cutoff        WCut        ...    1.0000e-14
Grids for H and He will be reduced by one unit

# of grid points (after initial pruning)     ...  18636 (   0.0 sec)
# of grid points (after weights+screening)   ...  18438 (   0.0 sec)
nearest neighbour list constructed           ...    0.0 sec
Grid point re-assignment to atoms done       ...    0.0 sec
Grid point division into batches done        ...    0.1 sec
Reduced shell lists constructed in    0.1 sec

Total number of grid points                  ...    18438
Total number of batches                      ...      289
Average number of points per batch           ...       63
Average number of grid points per atom       ...     6146
Average number of shells per batch           ...    16.99 (70.79%)
Average number of basis functions per batch  ...    39.53 (73.21%)
Average number of large shells per batch     ...    14.49 (85.29%)
Average number of large basis fcns per batch ...    33.94 (85.86%)
Maximum spatial batch extension              ...  15.85, 19.94, 19.94 au
Average spatial batch extension              ...   3.07,  4.00,  4.10 au

Final grid set up in    0.1 sec
Final integration                            ... done (   0.1 sec)
Change in XC energy                          ...    -0.000083031
Integrated number of electrons               ...    21.999994225
Previous integrated no of electrons          ...    21.999874993
Total Energy       :         -188.55850551 Eh           -5130.93779 eV
  Last Energy change         ...   -2.3738e-10  Tolerance :   1.0000e-08
  Last MAX-Density change    ...    3.4352e-07  Tolerance :   1.0000e-07
             **** THE GBW FILE WAS UPDATED (orca.gbw) ****
             **** DENSITY FILE WAS UPDATED (orca.scfp) ****
             **** ENERGY FILE WAS UPDATED (orca.en.tmp) ****
             **** THE GBW FILE WAS UPDATED (orca.gbw) ****
             **** DENSITY FILE WAS UPDATED (orca.scfp) ****
Total SCF time: 0 days 0 hours 0 min 1 sec 

-------------------------   --------------------
FINAL SINGLE POINT ENERGY      -188.558505514223
-------------------------   --------------------

------------------------------------------------------------------------------
                         ORCA SCF GRADIENT CALCULATION
------------------------------------------------------------------------------

Gradient of the Kohn-Sham DFT energy:
Kohn-Sham wavefunction type      ... RKS
Hartree-Fock exchange scaling    ...    0.200
Number of operators              ...    1
Number of atoms                  ...    3
Basis set dimensions             ...   54
Integral neglect threshold       ... 2.5e-11
Integral primitive cutoff        ... 2.5e-12

Nuclear repulsion gradient       ... done
One Electron Gradient            ... done
Pre-screening matrix             ... done
Starting the two electron gradient:
Two electron gradient done
Exchange-correlation gradient    ... done

------------------
CARTESIAN GRADIENT
------------------

   1   C   :   -0.000000000    0.000000004    0.000001075
   2   O   :   -0.001221247   -0.000000002   -0.000000543
   3   O   :    0.001221247   -0.000000002   -0.000000532

Difference to translation invariance:
           :   -0.0000000000    0.0000000000   -0.0000000000

Norm of the cartesian gradient     ...    0.0017271050
RMS gradient                       ...    0.0005757017
MAX gradient                       ...    0.0012212474

-------
TIMINGS
-------

Total SCF gradient time            ...        0.673 sec

One electron gradient       ....       0.004 sec  (  0.6%)
Prescreening matrices       ....       0.016 sec  (  2.4%)
Two electron gradient       ....       0.309 sec  ( 46.0%)
XC gradient                 ....       0.233 sec  ( 34.6%)
------------------------------------------------------------------------------
                         ORCA GEOMETRY RELAXATION STEP
------------------------------------------------------------------------------

Reading the OPT-File                    .... done
Getting information on internals        .... done
Copying old internal coords+grads       .... done
Making the new internal coordinates     .... (new redundants).... done
Validating the new internal coordinates .... (new redundants).... done
Calculating the B-matrix                .... done
Calculating the G,G- and P matrices     .... done
Transforming gradient to internals      .... done
Projecting the internal gradient        .... done
Number of atoms                         ....   3
Number of internal coordinates          ....   4
Current Energy                          ....  -188.558505514 Eh
Current gradient norm                   ....     0.001727105 Eh/bohr
Maximum allowed component of the step   ....  0.300
Current trust radius                    ....  0.300
Updating the Hessian (BFGS)             .... done
Forming the augmented Hessian           .... done
Diagonalizing the augmented Hessian     .... done
Last element of RFO vector              ....  0.999998826
Lowest eigenvalues of augmented Hessian:
 -0.000002646  0.536171479  0.536171482  1.127278821
Length of the computed step             ....  0.001532101
The final length of the internal step   ....  0.001532101
Converting the step to cartesian space:
 Initial RMS(Int)=    0.0007660504
Transforming coordinates:
 Iter   0:  RMS(Cart)=    0.0005107002 RMS(Int)=    0.0007660503
 Iter   1:  RMS(Cart)=    0.0000000682 RMS(Int)=    0.0000001146
done
Storing new coordinates                 .... done

                                .--------------------.
          ----------------------|Geometry convergence|-------------------------
          Item                value                   Tolerance       Converged
          ---------------------------------------------------------------------
          Energy change      -0.0000731090            0.0000050000      NO
          RMS gradient        0.0008635523            0.0001000000      NO
          MAX gradient        0.0012212474            0.0003000000      NO
          RMS step            0.0007660504            0.0020000000      YES
          MAX step            0.0010833588            0.0040000000      YES
          ........................................................
          Max(Bonds)      0.0006      Max(Angles)    0.00
          Max(Dihed)        0.00      Max(Improp)    0.00
          ---------------------------------------------------------------------

The optimization has not yet converged - more geometry cycles are needed


    ---------------------------------------------------------------------------
                         Redundant Internal Coordinates
                            (Angstroem and degrees)

        Definition                    Value    dE/dq     Step     New-Value
    ----------------------------------------------------------------------------
     1. B(O   1,C   0)                1.1601 -0.001221  0.0006    1.1607   
     2. B(O   2,C   0)                1.1601 -0.001221  0.0006    1.1607   
     3. L(O   1,C   0,O   2, 2)       180.00 -0.000000    0.00    180.00   
     4. L(O   1,C   0,O   2, 1)       180.00  0.000001   -0.00    180.00   
    ----------------------------------------------------------------------------

         *************************************************************
         *                GEOMETRY OPTIMIZATION CYCLE   4            *
         *************************************************************
---------------------------------
CARTESIAN COORDINATES (ANGSTROEM)
---------------------------------
  C     -1.859570    0.239890   -0.000001
  O     -0.698880    0.239890    0.000000
  O     -3.020260    0.239890   -0.000009

----------------------------
CARTESIAN COORDINATES (A.U.)
----------------------------
  NO LB      ZA    FRAG     MASS         X           Y           Z
   0 C     6.0000    0    12.011   -3.514078    0.453326   -0.000002
   1 O     8.0000    0    15.999   -1.320691    0.453326    0.000001
   2 O     8.0000    0    15.999   -5.707465    0.453326   -0.000018

--------------------------------
INTERNAL COORDINATES (ANGSTROEM)
--------------------------------
 C      0   0   0     0.000000000000     0.00000000     0.00000000
 O      1   0   0     1.160690410077     0.00000000     0.00000000
 O      1   2   0     1.160690410107   179.99965144     0.00000000

---------------------------
INTERNAL COORDINATES (A.U.)
---------------------------
 C      0   0   0     0.000000000000     0.00000000     0.00000000
 O      1   0   0     2.193387001314     0.00000000     0.00000000
 O      1   2   0     2.193387001371   179.99965144     0.00000000


Diagonalization of the overlap matrix:
Smallest eigenvalue                        ... 8.177e-03
Time for diagonalization                   ...    0.001 sec
Threshold for overlap eigenvalues          ... 1.000e-08
Number of eigenvalues below threshold      ... 0
Time for construction of square roots      ...    0.000 sec
Total time needed                          ...    0.001 sec

-------------------
DFT GRID GENERATION
-------------------

General Integration Accuracy     IntAcc      ...  4.340
Radial Grid Type                 RadialGrid  ... Gauss-Chebyshev
Angular Grid (max. acc.)         AngularGrid ... Lebedev-110
Angular grid pruning method      GridPruning ... 3 (G Style)
Weight generation scheme         WeightScheme... Becke
Basis function cutoff            BFCut       ...    1.0000e-11
Integration weight cutoff        WCut        ...    1.0000e-14
Grids for H and He will be reduced by one unit

# of grid points (after initial pruning)     ...   5088 (   0.0 sec)
# of grid points (after weights+screening)   ...   5034 (   0.0 sec)
nearest neighbour list constructed           ...    0.0 sec
Grid point re-assignment to atoms done       ...    0.0 sec
Grid point division into batches done        ...    0.0 sec
Reduced shell lists constructed in    0.0 sec

Total number of grid points                  ...     5034
Total number of batches                      ...       81
Average number of points per batch           ...       62
Average number of grid points per atom       ...     1678
Average number of shells per batch           ...    18.83 (78.46%)
Average number of basis functions per batch  ...    43.83 (81.17%)
Average number of large shells per batch     ...    16.68 (88.60%)
Average number of large basis fcns per batch ...    39.20 (89.43%)
Maximum spatial batch extension              ...  17.86, 25.60, 31.36 au
Average spatial batch extension              ...   4.16,  6.30,  5.62 au

Time for grid setup =    0.021 sec

--------------
SCF ITERATIONS
--------------
ITER       Energy         Delta-E        Max-DP      RMS-DP      [F,P]     Damp
               ***  Starting incremental Fock matrix formation  ***
                      *** Initiating the SOSCF procedure ***
                      *** Re-Reading the Fockian *** 
                      *** Removing any level shift *** 
ITER      Energy       Delta-E        Grad      Rot      Max-DP    RMS-DP
  0   -188.55842339 -188.5584233866  0.000278  0.000278  0.000199  0.000015
               *** Restarting incremental Fock matrix formation ***
  1   -188.55842382  -0.0000004301  0.000078  0.000082  0.000188  0.000011
  2   -188.55842384  -0.0000000246  0.000064  0.000037  0.000047  0.000003
  3   -188.55842386  -0.0000000225  0.000027  0.000030  0.000074  0.000003
  4   -188.55842386  -0.0000000007  0.000018  0.000011  0.000036  0.000001
                  ***Gradient check signals convergence***
              ***Rediagonalizing the Fockian in SOSCF/NRSCF***

               *****************************************************
               *                     SUCCESS                       *
               *           SCF CONVERGED AFTER   5 CYCLES          *
               *****************************************************

Setting up the final grid:

General Integration Accuracy     IntAcc      ...  4.670
Radial Grid Type                 RadialGrid  ... Gauss-Chebyshev
Angular Grid (max. acc.)         AngularGrid ... Lebedev-302
Angular grid pruning method      GridPruning ... 3 (G Style)
Weight generation scheme         WeightScheme... Becke
Basis function cutoff            BFCut       ...    1.0000e-11
Integration weight cutoff        WCut        ...    1.0000e-14
Grids for H and He will be reduced by one unit

# of grid points (after initial pruning)     ...  18636 (   0.0 sec)
# of grid points (after weights+screening)   ...  18438 (   0.0 sec)
nearest neighbour list constructed           ...    0.0 sec
Grid point re-assignment to atoms done       ...    0.0 sec
Grid point division into batches done        ...    0.1 sec
Reduced shell lists constructed in    0.1 sec

Total number of grid points                  ...    18438
Total number of batches                      ...      289
Average number of points per batch           ...       63
Average number of grid points per atom       ...     6146
Average number of shells per batch           ...    16.99 (70.80%)
Average number of basis functions per batch  ...    39.54 (73.22%)
Average number of large shells per batch     ...    14.48 (85.23%)
Average number of large basis fcns per batch ...    33.91 (85.77%)
Maximum spatial batch extension              ...  15.85, 19.94, 19.94 au
Average spatial batch extension              ...   3.07,  4.00,  4.10 au

Final grid set up in    0.1 sec
Final integration                            ... done (   0.1 sec)
Change in XC energy                          ...    -0.000082936
Integrated number of electrons               ...    21.999994290
Previous integrated no of electrons          ...    21.999874693
Total Energy       :         -188.55850680 Eh           -5130.93782 eV
  Last Energy change         ...   -3.2449e-09  Tolerance :   1.0000e-08
  Last MAX-Density change    ...    4.8988e-07  Tolerance :   1.0000e-07
             **** THE GBW FILE WAS UPDATED (orca.gbw) ****
             **** DENSITY FILE WAS UPDATED (orca.scfp) ****
             **** ENERGY FILE WAS UPDATED (orca.en.tmp) ****
             **** THE GBW FILE WAS UPDATED (orca.gbw) ****
             **** DENSITY FILE WAS UPDATED (orca.scfp) ****
Total SCF time: 0 days 0 hours 0 min 1 sec 

-------------------------   --------------------
FINAL SINGLE POINT ENERGY      -188.558506803904
-------------------------   --------------------

------------------------------------------------------------------------------
                         ORCA SCF GRADIENT CALCULATION
------------------------------------------------------------------------------

Gradient of the Kohn-Sham DFT energy:
Kohn-Sham wavefunction type      ... RKS
Hartree-Fock exchange scaling    ...    0.200
Number of operators              ...    1
Number of atoms                  ...    3
Basis set dimensions             ...   54
Integral neglect threshold       ... 2.5e-11
Integral primitive cutoff        ... 2.5e-12

Nuclear repulsion gradient       ... done
One Electron Gradient            ... done
Pre-screening matrix             ... done
Starting the two electron gradient:
Two electron gradient done
Exchange-correlation gradient    ... done

------------------
CARTESIAN GRADIENT
------------------

   1   C   :    0.000000000    0.000000000    0.000000976
   2   O   :    0.000018594   -0.000000000   -0.000000488
   3   O   :   -0.000018594   -0.000000000   -0.000000488

Difference to translation invariance:
           :   -0.0000000000   -0.0000000000    0.0000000000

Norm of the cartesian gradient     ...    0.0000263226
RMS gradient                       ...    0.0000087742
MAX gradient                       ...    0.0000185939

-------
TIMINGS
-------

Total SCF gradient time            ...        0.671 sec

One electron gradient       ....       0.004 sec  (  0.6%)
Prescreening matrices       ....       0.017 sec  (  2.5%)
Two electron gradient       ....       0.310 sec  ( 46.1%)
XC gradient                 ....       0.232 sec  ( 34.5%)
------------------------------------------------------------------------------
                         ORCA GEOMETRY RELAXATION STEP
------------------------------------------------------------------------------

Reading the OPT-File                    .... done
Getting information on internals        .... done
Copying old internal coords+grads       .... done
Making the new internal coordinates     .... (new redundants).... done
Validating the new internal coordinates .... (new redundants).... done
Calculating the B-matrix                .... done
Calculating the G,G- and P matrices     .... done
Transforming gradient to internals      .... done
Projecting the internal gradient        .... done
Number of atoms                         ....   3
Number of internal coordinates          ....   4
Current Energy                          ....  -188.558506804 Eh
Current gradient norm                   ....     0.000026323 Eh/bohr
Maximum allowed component of the step   ....  0.300
Current trust radius                    ....  0.300
Updating the Hessian (BFGS)             .... done
Forming the augmented Hessian           .... done
Diagonalizing the augmented Hessian     .... done
Last element of RFO vector              ....  1.000000000
Lowest eigenvalues of augmented Hessian:
 -0.000000001  0.536171362  0.536171482  1.140059219
Length of the computed step             ....  0.000022994
The final length of the internal step   ....  0.000022994
Converting the step to cartesian space:
 Initial RMS(Int)=    0.0000114971
Transforming coordinates:
 Iter   0:  RMS(Cart)=    0.0000076598 RMS(Int)=    0.0000114901
 Iter   1:  RMS(Cart)=    0.0000000668 RMS(Int)=    0.0000001119
done
Storing new coordinates                 .... done

                                .--------------------.
          ----------------------|Geometry convergence|-------------------------
          Item                value                   Tolerance       Converged
          ---------------------------------------------------------------------
          Energy change      -0.0000012897            0.0000050000      YES
          RMS gradient        0.0000131500            0.0001000000      YES
          MAX gradient        0.0000185939            0.0003000000      YES
          RMS step            0.0000114971            0.0020000000      YES
          MAX step            0.0000162470            0.0040000000      YES
          ........................................................
          Max(Bonds)      0.0000      Max(Angles)    0.00
          Max(Dihed)        0.00      Max(Improp)    0.00
          ---------------------------------------------------------------------

                    ***********************HURRAY********************
                    ***        THE OPTIMIZATION HAS CONVERGED     ***
                    *************************************************


    ---------------------------------------------------------------------------
                         Redundant Internal Coordinates

                          --- Optimized Parameters ---  
                            (Angstroem and degrees)

        Definition                    OldVal   dE/dq     Step     FinalVal
    ----------------------------------------------------------------------------
     1. B(O   1,C   0)                1.1607  0.000019 -0.0000    1.1607   
     2. B(O   2,C   0)                1.1607  0.000019 -0.0000    1.1607   
     3. L(O   1,C   0,O   2, 2)       180.00 -0.000000    0.00    180.00   
     4. L(O   1,C   0,O   2, 1)       180.00  0.000000   -0.00    180.00   
    ----------------------------------------------------------------------------
                 *******************************************************
                 *** FINAL ENERGY EVALUATION AT THE STATIONARY POINT ***
                 ***               (AFTER    4 CYCLES)               ***
                 *******************************************************
---------------------------------
CARTESIAN COORDINATES (ANGSTROEM)
---------------------------------
  C     -1.859570    0.239890   -0.000001
  O     -0.698888    0.239890    0.000000
  O     -3.020252    0.239890   -0.000009

----------------------------
CARTESIAN COORDINATES (A.U.)
----------------------------
  NO LB      ZA    FRAG     MASS         X           Y           Z
   0 C     6.0000    0    12.011   -3.514078    0.453326   -0.000002
   1 O     8.0000    0    15.999   -1.320707    0.453326    0.000001
   2 O     8.0000    0    15.999   -5.707449    0.453326   -0.000017

--------------------------------
INTERNAL COORDINATES (ANGSTROEM)
--------------------------------
 C      0   0   0     0.000000000000     0.00000000     0.00000000
 O      1   0   0     1.160681812703     0.00000000     0.00000000
 O      1   2   0     1.160681812548   179.99968783     0.00000000

---------------------------
INTERNAL COORDINATES (A.U.)
---------------------------
 C      0   0   0     0.000000000000     0.00000000     0.00000000
 O      1   0   0     2.193370754632     0.00000000     0.00000000
 O      1   2   0     2.193370754339   179.99968783     0.00000000

---------------------
BASIS SET INFORMATION
---------------------
There are 2 groups of distinct atoms

 Group   1 Type C   : 11s5p1d contracted to 4s3p1d pattern {6311/311/1}
 Group   2 Type O   : 11s5p1d contracted to 4s3p1d pattern {6311/311/1}

Atom   0C    basis set group =>   1
Atom   1O    basis set group =>   2
Atom   2O    basis set group =>   2
------------------------------------------------------------------------------
                           ORCA GTO INTEGRAL CALCULATION
------------------------------------------------------------------------------

                         BASIS SET STATISTICS AND STARTUP INFO

 # of primitive gaussian shells          ...   51
 # of primitive gaussian functions       ...   93
 # of contracted shells                  ...   24
 # of contracted basis functions         ...   54
 Highest angular momentum                ...    2
 Maximum contraction depth               ...    6
 Integral package used                   ... LIBINT
 Integral threshhold            Thresh   ...  2.500e-11
 Primitive cut-off              TCut     ...  2.500e-12


------------------------------ INTEGRAL EVALUATION ----------------------------


 * One electron integrals 
 Pre-screening matrix                    ... done
 Shell pair data                         ... done (   0.000 sec)

-------------------------------------------------------------------------------
                                 ORCA SCF
-------------------------------------------------------------------------------

------------
SCF SETTINGS
------------
Hamiltonian:
 Density Functional     Method          .... DFT(GTOs)
 Exchange Functional    Exchange        .... B88
   X-Alpha parameter    XAlpha          ....  0.666667
   Becke's b parameter  XBeta           ....  0.004200
 Correlation Functional Correlation     .... LYP
 LDA part of GGA corr.  LDAOpt          .... VWN-5
 Gradients option       PostSCFGGA      .... off
 Hybrid DFT is turned on
   Fraction HF Exchange ScalHFX         ....  0.200000
   Scaling of DF-GGA-X  ScalDFX         ....  0.720000
   Scaling of DF-GGA-C  ScalDFC         ....  0.810000
   Scaling of DF-LDA-C  ScalLDAC        ....  1.000000
   Perturbative correction              ....  0.000000
   Density functional embedding theory  .... OFF
   NL short-range parameter             ....  4.800000


General Settings:
 Integral files         IntName         .... orca
 Hartree-Fock type      HFTyp           .... RHF
 Total Charge           Charge          ....    0
 Multiplicity           Mult            ....    1
 Number of Electrons    NEL             ....   22
 Basis Dimension        Dim             ....   54
 Nuclear Repulsion      ENuc            ....     58.3576669555 Eh

Convergence Acceleration:
 DIIS                   CNVDIIS         .... on
   Start iteration      DIISMaxIt       ....    12
   Startup error        DIISStart       ....  0.200000
   # of expansion vecs  DIISMaxEq       ....     5
   Bias factor          DIISBfac        ....   1.050
   Max. coefficient     DIISMaxC        ....  10.000
 Newton-Raphson         CNVNR           .... off
 SOSCF                  CNVSOSCF        .... on
   Start iteration      SOSCFMaxIt      ....   150
   Startup grad/error   SOSCFStart      ....  0.003300
 Level Shifting         CNVShift        .... on
   Level shift para.    LevelShift      ....    0.2500
   Turn off err/grad.   ShiftErr        ....    0.0010
 Zerner damping         CNVZerner       .... off
 Static damping         CNVDamp         .... on
   Fraction old density DampFac         ....    0.7000
   Max. Damping (<1)    DampMax         ....    0.9800
   Min. Damping (>=0)   DampMin         ....    0.0000
   Turn off err/grad.   DampErr         ....    0.1000
 Fernandez-Rico         CNVRico         .... off

SCF Procedure:
 Maximum # iterations   MaxIter         ....   125
 SCF integral mode      SCFMode         .... Direct
   Integral package                     .... LIBINT
 Reset frequency        DirectResetFreq ....    20
 Integral Threshold     Thresh          ....  2.500e-11 Eh
 Primitive CutOff       TCut            ....  2.500e-12 Eh

Convergence Tolerance:
 Convergence Check Mode ConvCheckMode   .... Total+1el-Energy
 Convergence forced     ConvForced      .... 0
 Energy Change          TolE            ....  1.000e-08 Eh
 1-El. energy change                    ....  1.000e-05 Eh
 Orbital Gradient       TolG            ....  1.000e-05
 Orbital Rotation angle TolX            ....  1.000e-05
 DIIS Error             TolErr          ....  5.000e-07


Diagonalization of the overlap matrix:
Smallest eigenvalue                        ... 8.176e-03
Time for diagonalization                   ...    0.001 sec
Threshold for overlap eigenvalues          ... 1.000e-08
Number of eigenvalues below threshold      ... 0
Time for construction of square roots      ...    0.000 sec
Total time needed                          ...    0.001 sec

---------------------
INITIAL GUESS: MOREAD
---------------------
Guess MOs are being read from file: orca.gbw
[...]
Maximum spatial batch extension              ...  15.85, 19.94, 19.94 au
Average spatial batch extension              ...   3.07,  4.00,  4.10 au

Final grid set up in    0.1 sec
Final integration                            ... done (   0.1 sec)
Change in XC energy                          ...    -0.000082938
Integrated number of electrons               ...    21.999994289
Previous integrated no of electrons          ...    21.999874698

----------------
TOTAL SCF ENERGY
----------------

Total Energy       :         -188.55850680 Eh           -5130.93782 eV

Components:
Nuclear Repulsion  :           58.35766696 Eh            1587.99285 eV
Electronic Energy  :         -246.91617376 Eh           -6718.93067 eV
One Electron Energy:         -372.96216676 Eh          -10148.81651 eV
Two Electron Energy:          126.04599300 Eh            3429.88584 eV

Virial components:
Potential Energy   :         -376.70368079 Eh          -10250.62829 eV
Kinetic Energy     :          188.14517399 Eh            5119.69046 eV
Virial Ratio       :            2.00219688


DFT components:
N(Alpha)           :       10.999997144277 electrons
N(Beta)            :       10.999997144277 electrons
N(Total)           :       21.999994288555 electrons
E(X)               :      -17.256212620865 Eh       
E(C)               :       -0.931106573383 Eh       
E(XC)              :      -18.187319194248 Eh       
DFET-embed. en.    :        0.000000000000 Eh       

---------------
SCF CONVERGENCE
---------------

  Last Energy change         ...   -8.2281e-11  Tolerance :   1.0000e-08
  Last MAX-Density change    ...    3.2542e-06  Tolerance :   1.0000e-07
  Last RMS-Density change    ...    1.4533e-07  Tolerance :   5.0000e-09
  Last Orbital Gradient      ...    9.1436e-07  Tolerance :   1.0000e-05
  Last Orbital Rotation      ...    1.4486e-06  Tolerance :   1.0000e-05

             **** THE GBW FILE WAS UPDATED (orca.gbw) ****
             **** DENSITY FILE WAS UPDATED (orca.scfp) ****
             **** ENERGY FILE WAS UPDATED (orca.en.tmp) ****
             **** THE GBW FILE WAS UPDATED (orca.gbw) ****
             **** DENSITY FILE WAS UPDATED (orca.scfp) ****
----------------
ORBITAL ENERGIES
----------------

  NO   OCC          E(Eh)            E(eV) 
   0   2.0000     -19.199484      -522.4445 
   1   2.0000     -19.199484      -522.4445 
   2   2.0000     -10.356608      -281.8176 
   3   2.0000      -1.164561       -31.6893 
   4   2.0000      -1.125335       -30.6219 
   5   2.0000      -0.562655       -15.3106 
   6   2.0000      -0.520851       -14.1731 
   7   2.0000      -0.518365       -14.1054 
   8   2.0000      -0.518365       -14.1054 
   9   2.0000      -0.373315       -10.1584 
  10   2.0000      -0.373315       -10.1584 
  11   0.0000       0.032806         0.8927 
  12   0.0000       0.032806         0.8927 
  13   0.0000       0.068556         1.8655 
  14   0.0000       0.306250         8.3335 
  15   0.0000       0.353766         9.6265 
  16   0.0000       0.353766         9.6265 
  17   0.0000       0.493378        13.4255 
  18   0.0000       0.640121        17.4186 
  19   0.0000       0.694304        18.8930 
  20   0.0000       0.750295        20.4166 
  21   0.0000       0.750295        20.4166 
  22   0.0000       0.926993        25.2248 
  23   0.0000       0.926993        25.2248 
  24   0.0000       1.013644        27.5826 
  25   0.0000       1.189109        32.3573 
  26   0.0000       1.189230        32.3606 
  27   0.0000       1.259378        34.2694 
  28   0.0000       1.386901        37.7395 
  29   0.0000       1.386901        37.7395 
  30   0.0000       1.546822        42.0912 
  31   0.0000       2.436975        66.3135 
  32   0.0000       2.436975        66.3135 
  33   0.0000       2.617056        71.2137 
  34   0.0000       2.738641        74.5222 
  35   0.0000       2.739186        74.5370 
  36   0.0000       2.848870        77.5217 
  37   0.0000       2.849401        77.5361 
  38   0.0000       3.060131        83.2704 
  39   0.0000       3.060131        83.2704 
  40   0.0000       3.137067        85.3639 
  41   0.0000       3.560359        96.8823 
  42   0.0000       3.594972        97.8242 
  43   0.0000       3.617071        98.4255 
  44   0.0000       3.617071        98.4255 
  45   0.0000       4.829836       131.4265 
  46   0.0000       4.829836       131.4265 
  47   0.0000       4.912354       133.6720 
  48   0.0000       4.912354       133.6720 
  49   0.0000       5.433450       147.8517 
  50   0.0000       5.596104       152.2777 
  51   0.0000      24.354075       662.7081 
  52   0.0000      49.815606      1355.5516 
  53   0.0000      50.033933      1361.4925 

                    ********************************
                    * MULLIKEN POPULATION ANALYSIS *
                    ********************************

-----------------------
MULLIKEN ATOMIC CHARGES
-----------------------
   0 C :    0.495848
   1 O :   -0.247924
   2 O :   -0.247924
Sum of atomic charges:   -0.0000000

--------------------------------
MULLIKEN REDUCED ORBITAL CHARGES
--------------------------------
  0 C s       :     2.921679  s :     2.921679
      pz      :     0.815080  p :     2.364648
      px      :     0.734487
      py      :     0.815080
      dz2     :     0.010821  d :     0.217825
      dxz     :     0.087271
      dyz     :     0.000000
      dx2y2   :     0.032462
      dxy     :     0.087271
  1 O s       :     3.827802  s :     3.827802
      pz      :     1.542875  p :     4.398410
      px      :     1.312660
      py      :     1.542875
      dz2     :     0.002453  d :     0.021711
      dxz     :     0.005949
      dyz     :     0.000000
      dx2y2   :     0.007360
      dxy     :     0.005949
  2 O s       :     3.827802  s :     3.827802
      pz      :     1.542875  p :     4.398410
      px      :     1.312660
      py      :     1.542875
      dz2     :     0.002453  d :     0.021711
      dxz     :     0.005949
      dyz     :     0.000000
      dx2y2   :     0.007360
      dxy     :     0.005949


                     *******************************
                     * LOEWDIN POPULATION ANALYSIS *
                     *******************************

----------------------
LOEWDIN ATOMIC CHARGES
----------------------
   0 C :   -0.061164
   1 O :    0.030582
   2 O :    0.030582

-------------------------------
LOEWDIN REDUCED ORBITAL CHARGES
-------------------------------
  0 C s       :     2.806837  s :     2.806837
      pz      :     0.825501  p :     2.795035
      px      :     1.144033
      py      :     0.825501
      dz2     :     0.033832  d :     0.459292
      dxz     :     0.161983
      dyz     :     0.000000
      dx2y2   :     0.101495
      dxy     :     0.161983
  1 O s       :     3.474551  s :     3.474551
      pz      :     1.500089  p :     4.465610
      px      :     1.465433
      py      :     1.500089
      dz2     :     0.004230  d :     0.029257
      dxz     :     0.006169
      dyz     :     0.000000
      dx2y2   :     0.012689
      dxy     :     0.006169
  2 O s       :     3.474551  s :     3.474551
      pz      :     1.500089  p :     4.465610
      px      :     1.465433
      py      :     1.500089
      dz2     :     0.004230  d :     0.029257
      dxz     :     0.006169
      dyz     :     0.000000
      dx2y2   :     0.012689
      dxy     :     0.006169


                      *****************************
                      * MAYER POPULATION ANALYSIS *
                      *****************************

  NA   - Mulliken gross atomic population
  ZA   - Total nuclear charge
  QA   - Mulliken gross atomic charge
  VA   - Mayer's total valence
  BVA  - Mayer's bonded valence
  FA   - Mayer's free valence

  ATOM       NA         ZA         QA         VA         BVA        FA
  0 C      5.5042     6.0000     0.4958     4.2157     4.2157     0.0000
  1 O      8.2479     8.0000    -0.2479     2.3286     2.3286     0.0000
  2 O      8.2479     8.0000    -0.2479     2.3286     2.3286     0.0000

  Mayer bond orders larger than 0.100000
B(  0-C ,  1-O ) :   2.1079 B(  0-C ,  2-O ) :   2.1079 B(  1-O ,  2-O ) :   0.2207 


-------
TIMINGS
-------

Total SCF time: 0 days 0 hours 0 min 0 sec 

Total time                  ....       0.717 sec
Sum of individual times     ....       0.561 sec  ( 78.2%)

Fock matrix formation       ....       0.404 sec  ( 56.3%)
  XC integration            ....       0.109 sec  ( 26.9% of F)
    Basis function eval.    ....       0.043 sec  ( 39.7% of XC)
    Density eval.           ....       0.016 sec  ( 14.9% of XC)
    XC-Functional eval.     ....       0.022 sec  ( 19.9% of XC)
    XC-Potential eval.      ....       0.022 sec  ( 20.4% of XC)
Diagonalization             ....       0.000 sec  (  0.1%)
Density matrix formation    ....       0.000 sec  (  0.0%)
Population analysis         ....       0.001 sec  (  0.1%)
Initial guess               ....       0.001 sec  (  0.1%)
Orbital Transformation      ....       0.000 sec  (  0.0%)
Orbital Orthonormalization  ....       0.000 sec  (  0.0%)
DIIS solution               ....       0.000 sec  (  0.0%)
SOSCF solution              ....       0.000 sec  (  0.0%)
Grid generation             ....       0.155 sec  ( 21.6%)

-------------------------   --------------------
FINAL SINGLE POINT ENERGY      -188.558506804421
-------------------------   --------------------

                                *** OPTIMIZATION RUN DONE ***

                            ***************************************
                            *     ORCA property calculations      *
                            ***************************************

                                    ---------------------
                                    Active property flags
                                    ---------------------
   (+) Dipole Moment


------------------------------------------------------------------------------
                       ORCA ELECTRIC PROPERTIES CALCULATION
------------------------------------------------------------------------------

Dipole Moment Calculation                       ... on
Quadrupole Moment Calculation                   ... off
Polarizability Calculation                      ... off
GBWName                                         ... orca.gbw
Electron density file                           ... orca.scfp
The origin for moment calculation is the CENTER OF MASS  = (-3.514078,  0.453326 -0.000007)

-------------
DIPOLE MOMENT
-------------
                                X             Y             Z
Electronic contribution:      0.00000       0.00000       0.00000
Nuclear contribution   :      0.00000      -0.00000      -0.00000
                        -----------------------------------------
Total Dipole Moment    :      0.00000       0.00000       0.00000
                        -----------------------------------------
Magnitude (a.u.)       :      0.00000
Magnitude (Debye)      :      0.00001



--------------------
Rotational spectrum 
--------------------
 
Rotational constants in cm-1:     0.000000     0.391064     0.391064 
Rotational constants in MHz :     0.000000 11723.800276 11723.800276 

 Dipole components along the rotational axes: 
x,y,z [a.u.] :     0.000000     0.000003     0.000000 
x,y,z [Debye]:     0.000000     0.000008     0.000000 

 

-------------------------------------------------------------------------------
                               ORCA SCF HESSIAN
-------------------------------------------------------------------------------

Hessian of the Kohn-Sham DFT energy:
Kohn-Sham wavefunction type                      ... RKS
Hartree-Fock exchange scaling                    ...    0.200
Number of operators                              ...    1
Number of atoms                                  ...    3
Basis set dimensions                             ...   54
Integral neglect threshold                       ... 2.5e-11
Integral primitive cutoff                        ... 2.5e-12

Setting up DFT Hessian calculations              ... 
Electron density on the grid                     ... found on disk
Electron density on the final grid               ... found on disk
Building xc-kernel on the grid                   ... done   (      0.0 sec)
Building xc-kernel on the final grid             ... done   (      0.0 sec)
                                                     done   (      0.0 sec)

Nuclear repulsion Hessian                        ... done   (      0.0 sec)

----------------------------------------------
Forming right-hand sides of CP-SCF equations     ...
----------------------------------------------
One electron integral derivatives                ... done   (      0.1 sec)
Transforming the overlap derivative matrices     ... done   (      0.0 sec)
Making the Q(x) pseudodensities                  ... done   (      0.0 sec)
Adding the E*S(x)*S(y) terms to the Hessian      ... done   (      0.0 sec)
Calculating energy weighted overlap derivatives  ... done   (      0.0 sec)
Two electron integral derivatives                ... done   (      0.5 sec)
Exchange-correlation integral derivatives        ... done   (      1.0 sec)
tr(F(y)Q(x)) contribution to the Hessian         ... done   (      0.0 sec)
Response fock operator R(S(x))                   ... done   (      0.3 sec)
XC Response fock operator R(S(x))                ... done   (      0.2 sec)
tr(F(y)S(x)) contribution to the Hessian         ... done   (      0.0 sec)
Transforming and finalizing RHSs                 ... done   (      0.0 sec)

----------------------------------------------
Solving the CP-SCF equations                     ...
----------------------------------------------

WARNING    : Tol<Thresh in CP-SCF. This will prevent convergence
CONSEQUENCE:  Setting Tol to 2.500e-10

     CP-SCF ITERATION   0: 
     CP-SCF ITERATION   1:      0.007134502923
     CP-SCF ITERATION   2:      0.000255522666
     CP-SCF ITERATION   3:      0.000054364390
     CP-SCF ITERATION   4:      0.000001175935
     CP-SCF ITERATION   5:      0.000000015455
     CP-SCF ITERATION   6:      0.000000000159

                                                 ... done   (      2.7 sec)
Forming perturbed density Hessian contributions  ... done   (      0.0 sec)
Making the perturbed densities                   ... done   (      0.0 sec)
2nd integral derivative contribs                 ... done   (      2.4 sec)
Exchange-correlation Hessian                     ... done   (      1.2 sec)
Dipol derivatives                                ... done   (      0.1 sec)

Total SCF Hessian time: 0 days 0 hours 0 min 8 sec 

Writing the Hessian file to the disk             ... done


Maximum memory used throughout the entire calculation: 102.7 MB

-----------------------
VIBRATIONAL FREQUENCIES
-----------------------

Scaling factor for frequencies =  1.000000000  (already applied!)

   0:         0.00 cm**-1
   1:         0.00 cm**-1
   2:         0.00 cm**-1
   3:         0.00 cm**-1
   4:         0.00 cm**-1
   5:         0.00 cm**-1
   6:       665.69 cm**-1
   7:      1374.74 cm**-1
   8:      2433.39 cm**-1


------------
NORMAL MODES
------------

These modes are the Cartesian displacements weighted by the diagonal matrix
M(i,i)=1/sqrt(m[i]) where m[i] is the mass of the displaced atom
Thus, these vectors are normalized but *not* orthogonal

                  0          1          2          3          4          5    
      0       0.000000   0.000000   0.000000   0.000000   0.000000   0.000000
      1       0.000000   0.000000   0.000000   0.000000   0.000000   0.000000
      2       0.000000   0.000000   0.000000   0.000000   0.000000   0.000000
      3       0.000000   0.000000   0.000000   0.000000   0.000000   0.000000
      4       0.000000   0.000000   0.000000   0.000000   0.000000   0.000000
      5       0.000000   0.000000   0.000000   0.000000   0.000000   0.000000
      6       0.000000   0.000000   0.000000   0.000000   0.000000   0.000000
      7       0.000000   0.000000   0.000000   0.000000   0.000000   0.000000
      8       0.000000   0.000000   0.000000   0.000000   0.000000   0.000000
                   6          7          8    
      0      -0.000004  -0.000000  -0.883262
      1       0.000819   0.000000  -0.000000
      2       0.883262   0.000004  -0.000004
      3      -0.000001   0.707107   0.331548
      4      -0.000307  -0.000000  -0.000000
      5      -0.331548   0.000001   0.000000
      6       0.000004  -0.707107   0.331548
      7      -0.000307  -0.000000   0.000000
      8      -0.331548  -0.000005   0.000002


-----------
IR SPECTRUM
-----------

 Mode    freq (cm**-1)   T**2         TX         TY         TZ
-------------------------------------------------------------------
   6:       665.69   32.682309  ( -0.000018   0.005299   5.716842)
   7:      1374.74    0.000000  ( -0.000000   0.000000   0.000014)
   8:      2433.39  617.457762  (-24.848697   0.000000  -0.000104)

The first frequency considered to be a vibration is 6
The total number of vibrations considered is 3


--------------------------
THERMOCHEMISTRY AT 298.15K
--------------------------

Temperature         ... 298.15 K
Pressure            ... 1.00 atm
Total Mass          ... 44.01 AMU
The molecule is recognized as being linear

Throughout the following assumptions are being made:
  (1) The electronic state is orbitally nondegenerate
  (2) There are no thermally accessible electronically excited states
  (3) Hindered rotations indicated by low frequency modes are not
      treated as such but are treated as vibrations and this may
      cause some error
  (4) All equations used are the standard statistical mechanics
      equations for an ideal gas
  (5) All vibrations are strictly harmonic

freq.     665.69  E(vib)   ...       0.08 
freq.    1374.74  E(vib)   ...       0.01 
freq.    2433.39  E(vib)   ...       0.00 

------------
INNER ENERGY
------------

The inner energy is: U= E(el) + E(ZPE) + E(vib) + E(rot) + E(trans)
    E(el)   - is the total energy from the electronic structure calculation
              = E(kin-el) + E(nuc-el) + E(el-el) + E(nuc-nuc)
    E(ZPE)  - the the zero temperature vibrational energy from the frequency calculation
    E(vib)  - the the finite temperature correction to E(ZPE) due to population
              of excited vibrational states
    E(rot)  - is the rotational thermal energy
    E(trans)- is the translational thermal energy

Summary of contributions to the inner energy U:
Electronic energy                ...   -188.55850680 Eh
Zero point energy                ...      0.01019210 Eh       6.40 kcal/mol
Thermal vibrational correction   ...      0.00013558 Eh       0.09 kcal/mol
Thermal rotational correction    ...      0.00094418 Eh       0.59 kcal/mol
Thermal translational correction ...      0.00141627 Eh       0.89 kcal/mol
-----------------------------------------------------------------------
Total thermal energy                   -188.54581867 Eh


Summary of corrections to the electronic energy:
(perhaps to be used in another calculation)
Total thermal correction                  0.00249604 Eh       1.57 kcal/mol
Non-thermal (ZPE) correction              0.01019210 Eh       6.40 kcal/mol
-----------------------------------------------------------------------
Total correction                          0.01268813 Eh       7.96 kcal/mol


--------
ENTHALPY
--------

The enthalpy is H = U + kB*T
                kB is Boltzmann's constant
Total free energy                 ...   -188.54581867 Eh 
Thermal Enthalpy correction       ...      0.00094421 Eh       0.59 kcal/mol
-----------------------------------------------------------------------
Total Enthalpy                    ...   -188.54487446 Eh

[file orca_tools/Tool-Symmetry/symmain.cpp, line 3070]: Error (ORCA_SYM): TMoleculeSymmetry::CleanUp molecule is linear but not aligned to z axis!

