
                                 *****************
                                 * O   R   C   A *
                                 *****************

           --- An Ab Initio, DFT and Semiempirical electronic structure package ---

                  #######################################################
                  #                        -***-                        #
                  #          Department of theory and spectroscopy      #
                  #               Directorship: Frank Neese             #
                  #        Max Planck Institute fuer Kohlenforschung    #
                  #                Kaiser Wilhelm Platz 1               #
                  #                 D-45470 Muelheim/Ruhr               #
                  #                      Germany                        #
                  #                                                     #
                  #                  All rights reserved                #
                  #                        -***-                        #
                  #######################################################


                         Program Version 4.2.1 -  RELEASE  -


 With contributions from (in alphabetic order):
   Daniel Aravena         : Magnetic Suceptibility
   Michael Atanasov       : Ab Initio Ligand Field Theory (pilot matlab implementation)
   Alexander A. Auer      : GIAO ZORA, VPT2
   Ute Becker             : Parallelization
   Giovanni Bistoni       : ED, misc. LED, open-shell LED, HFLD
   Martin Brehm           : Molecular dynamics
   Dmytro Bykov           : SCF Hessian
   Vijay G. Chilkuri      : MRCI spin determinant printing, contributions to CSF-ICE
   Dipayan Datta          : RHF DLPNO-CCSD density
   Achintya Kumar Dutta   : EOM-CC, STEOM-CC
   Dmitry Ganyushin       : Spin-Orbit,Spin-Spin,Magnetic field MRCI
   Miquel Garcia          : C-PCM Hessian, Gaussian charge scheme
   Yang Guo               : DLPNO-NEVPT2, CIM, IAO-localization
   Andreas Hansen         : Spin unrestricted coupled pair/coupled cluster methods
   Benjamin Helmich-Paris : CASSCF linear response (MC-RPA)
   Lee Huntington         : MR-EOM, pCC
   Robert Izsak           : Overlap fitted RIJCOSX, COSX-SCS-MP3, EOM
   Christian Kollmar      : KDIIS, OOCD, Brueckner-CCSD(T), CCSD density
   Simone Kossmann        : Meta GGA functionals, TD-DFT gradient, OOMP2, MP2 Hessian
   Martin Krupicka        : AUTO-CI
   Lucas Lang             : DCDCAS
   Dagmar Lenk            : GEPOL surface, SMD
   Dimitrios Liakos       : Extrapolation schemes; Compound Job, initial MDCI parallelization
   Dimitrios Manganas     : Further ROCIS development; embedding schemes
   Dimitrios Pantazis     : SARC Basis sets
   Taras Petrenko         : DFT Hessian,TD-DFT gradient, ASA, ECA, R-Raman, ABS, FL, XAS/XES, NRVS
   Peter Pinski           : DLPNO-MP2, DLPNO-MP2 Gradient
   Christoph Reimann      : Effective Core Potentials
   Marius Retegan         : Local ZFS, SOC
   Christoph Riplinger    : Optimizer, TS searches, QM/MM, DLPNO-CCSD(T), (RO)-DLPNO pert. Triples
   Tobias Risthaus        : Range-separated hybrids, TD-DFT gradient, RPA, STAB
   Michael Roemelt        : Original ROCIS implementation
   Masaaki Saitow         : Open-shell DLPNO-CCSD energy and density
   Barbara Sandhoefer     : DKH picture change effects
   Avijit Sen             : IP-ROCIS
   Kantharuban Sivalingam : CASSCF convergence, NEVPT2, FIC-MRCI
   Bernardo de Souza      : ESD, SOC TD-DFT
   Georgi Stoychev        : AutoAux, RI-MP2 NMR
   Willem Van den Heuvel  : Paramagnetic NMR
   Boris Wezisla          : Elementary symmetry handling
   Frank Wennmohs         : Technical directorship


 We gratefully acknowledge several colleagues who have allowed us to
 interface, adapt or use parts of their codes:
   Stefan Grimme, W. Hujo, H. Kruse,             : VdW corrections, initial TS optimization,
                  C. Bannwarth                     DFT functionals, gCP, sTDA/sTD-DF
   Ed Valeev, F. Pavosevic, A. Kumar             : LibInt (2-el integral package), F12 methods
   Garnet Chan, S. Sharma, J. Yang, R. Olivares  : DMRG
   Ulf Ekstrom                                   : XCFun DFT Library
   Mihaly Kallay                                 : mrcc  (arbitrary order and MRCC methods)
   Andreas Klamt, Michael Diedenhofen            : otool_cosmo (COSMO solvation model)
   Jiri Pittner, Ondrej Demel                    : Mk-CCSD
   Frank Weinhold                                : gennbo (NPA and NBO analysis)
   Christopher J. Cramer and Donald G. Truhlar   : smd solvation model
   Lars Goerigk                                  : TD-DFT with DH, B97 family of functionals
   V. Asgeirsson, H. Jonsson                     : NEB implementation
   FAccTs GmbH                                   : IRC, NEB, NEB-TS, Multilevel, MM, QM/MM, CI optimization
   S Lehtola, MJT Oliveira, MAL Marques          : LibXC Library


 Your calculation uses the libint2 library for the computation of 2-el integrals
 For citations please refer to: http://libint.valeyev.net

 Your ORCA version has been built with support for libXC version: 4.2.3
 For citations please refer to: https://tddft.org/programs/libxc/

 This ORCA versions uses:
   CBLAS   interface :  Fast vector & matrix operations
   LAPACKE interface :  Fast linear algebra routines
   SCALAPACK package :  Parallel linear algebra routines


----- Orbital basis set information -----
Your calculation utilizes the basis: 6-311G**
   H, Li - Ne  : R. Krishnan, J. S. Binkley, R. Seeger and J. A. Pople, J. Chem. Phys. 72, 650 (1980).
   Na - Ar     : A. D. McLean and G. S. Chandler J. Chem. Phys. 72, 5639, (1980).
   K  - Ca     : J.-P. Blaudeau, M. P. McGrath, L. A. Curtiss and L. Radom, J. Chem. Phys. 107, 5016 (1997).
   Ga - Kr     : L. A. Curtiss, M. P. McGrath, J.-P. Blandeau, N. E. Davis, R. C. Binning and L. Radom, J. Chem. Phys. 103, 6104 (1995).
   Pol./Diff.
   H, Li - Cl  : T. Clark, J. Chandrasekhar and P. v. R. Schleyer, J. Comp. Chem. 4, 294 (1983).
   H - Ne      : M. J. Frisch, J. A. Pople and J. S. Binkley, J. Chem. Phys. 80, 3265 (1984).

================================================================================
                                        WARNINGS
                       Please study these warnings very carefully!
================================================================================


WARNING: Geometry Optimization
  ===> : Switching off AutoStart
         For restart on a previous wavefunction, please use MOREAD

INFO   : the flag for use of LIBINT has been found!

================================================================================
                                       INPUT FILE
================================================================================
NAME = orca.inp
|  1> !B3LYP 6-311G** OPT
|  2> 
|  3> ! FREQ
|  4> ! nofrozencore
|  5> 
|  6> %method
|  7>   Z_Tol 1e-14
|  8> end
|  9> 
| 10> *xyz 0 1
| 11> O    -0.952267674    0.000000000    -0.997704664
| 12> H    -0.952267674    0.759337000    -0.401661664
| 13> H    -0.952267674    -0.759337000    -0.401661664
| 14> **                         ****END OF INPUT****
================================================================================

                       *****************************
                       * Geometry Optimization Run *
                       *****************************

Geometry optimization settings:
Update method            Update   .... BFGS
Choice of coordinates    CoordSys .... Z-matrix Internals
Initial Hessian          InHess   .... Almoef's Model

Convergence Tolerances:
Energy Change            TolE     ....  5.0000e-06 Eh
Max. Gradient            TolMAXG  ....  3.0000e-04 Eh/bohr
RMS Gradient             TolRMSG  ....  1.0000e-04 Eh/bohr
Max. Displacement        TolMAXD  ....  4.0000e-03 bohr
RMS Displacement         TolRMSD  ....  2.0000e-03 bohr
Strict Convergence                ....  False
------------------------------------------------------------------------------
                        ORCA OPTIMIZATION COORDINATE SETUP
------------------------------------------------------------------------------

The optimization will be done in new redundant internal coordinates
Making redundant internal coordinates   ...  (new redundants) done
Evaluating the initial hessian          ...  (Almloef) done
Evaluating the coordinates              ...  done
Calculating the B-matrix                .... done
Calculating the G-matrix                .... done
Diagonalizing the G-matrix              .... done
The first mode is                       ....    0
The number of degrees of freedom        ....    3

    -----------------------------------------------------------------
                    Redundant Internal Coordinates


    -----------------------------------------------------------------
         Definition                    Initial Value    Approx d2E/dq
    -----------------------------------------------------------------
      1. B(H   1,O   0)                  0.9653         0.509876   
      2. B(H   2,O   0)                  0.9653         0.509876   
      3. A(H   1,O   0,H   2)          103.7396         0.319780   
    -----------------------------------------------------------------

Number of atoms                         .... 3
Number of degrees of freedom            .... 3

         *************************************************************
         *                GEOMETRY OPTIMIZATION CYCLE   1            *
         *************************************************************
---------------------------------
CARTESIAN COORDINATES (ANGSTROEM)
---------------------------------
  O     -0.952268    0.000000   -0.997705
  H     -0.952268    0.759337   -0.401662
  H     -0.952268   -0.759337   -0.401662

----------------------------
CARTESIAN COORDINATES (A.U.)
----------------------------
  NO LB      ZA    FRAG     MASS         X           Y           Z
   0 O     8.0000    0    15.999   -1.799525    0.000000   -1.885389
   1 H     1.0000    0     1.008   -1.799525    1.434939   -0.759031
   2 H     1.0000    0     1.008   -1.799525   -1.434939   -0.759031

--------------------------------
INTERNAL COORDINATES (ANGSTROEM)
--------------------------------
 O      0   0   0     0.000000000000     0.00000000     0.00000000
 H      1   0   0     0.965328927060     0.00000000     0.00000000
 H      1   2   0     0.965328927060   103.73958501     0.00000000

---------------------------
INTERNAL COORDINATES (A.U.)
---------------------------
 O      0   0   0     0.000000000000     0.00000000     0.00000000
 H      1   0   0     1.824207301295     0.00000000     0.00000000
 H      1   2   0     1.824207301295   103.73958501     0.00000000

---------------------
BASIS SET INFORMATION
---------------------
There are 2 groups of distinct atoms

 Group   1 Type O   : 11s5p1d contracted to 4s3p1d pattern {6311/311/1}
 Group   2 Type H   : 5s1p contracted to 3s1p pattern {311/1}

Atom   0O    basis set group =>   1
Atom   1H    basis set group =>   2
Atom   2H    basis set group =>   2
------------------------------------------------------------------------------
                           ORCA GTO INTEGRAL CALCULATION
------------------------------------------------------------------------------

                         BASIS SET STATISTICS AND STARTUP INFO

 # of primitive gaussian shells          ...   29
 # of primitive gaussian functions       ...   47
 # of contracted shells                  ...   16
 # of contracted basis functions         ...   30
 Highest angular momentum                ...    2
 Maximum contraction depth               ...    6
 Integral package used                   ... LIBINT
 Integral threshhold            Thresh   ...  2.500e-11
 Primitive cut-off              TCut     ...  2.500e-12


------------------------------ INTEGRAL EVALUATION ----------------------------


 * One electron integrals 
 Pre-screening matrix                    ... done
 Shell pair data                         ... done (   0.000 sec)

-------------------------------------------------------------------------------
                                 ORCA SCF
-------------------------------------------------------------------------------

------------
SCF SETTINGS
------------
Hamiltonian:
 Density Functional     Method          .... DFT(GTOs)
 Exchange Functional    Exchange        .... B88
   X-Alpha parameter    XAlpha          ....  0.666667
   Becke's b parameter  XBeta           ....  0.004200
 Correlation Functional Correlation     .... LYP
 LDA part of GGA corr.  LDAOpt          .... VWN-5
 Gradients option       PostSCFGGA      .... off
 Hybrid DFT is turned on
   Fraction HF Exchange ScalHFX         ....  0.200000
   Scaling of DF-GGA-X  ScalDFX         ....  0.720000
   Scaling of DF-GGA-C  ScalDFC         ....  0.810000
   Scaling of DF-LDA-C  ScalLDAC        ....  1.000000
   Perturbative correction              ....  0.000000
   Density functional embedding theory  .... OFF
   NL short-range parameter             ....  4.800000


General Settings:
 Integral files         IntName         .... orca
 Hartree-Fock type      HFTyp           .... RHF
 Total Charge           Charge          ....    0
 Multiplicity           Mult            ....    1
 Number of Electrons    NEL             ....   10
 Basis Dimension        Dim             ....   30
 Nuclear Repulsion      ENuc            ....      9.1193798645 Eh

Convergence Acceleration:
 DIIS                   CNVDIIS         .... on
   Start iteration      DIISMaxIt       ....    12
   Startup error        DIISStart       ....  0.200000
   # of expansion vecs  DIISMaxEq       ....     5
   Bias factor          DIISBfac        ....   1.050
   Max. coefficient     DIISMaxC        ....  10.000
 Newton-Raphson         CNVNR           .... off
 SOSCF                  CNVSOSCF        .... on
   Start iteration      SOSCFMaxIt      ....   150
   Startup grad/error   SOSCFStart      ....  0.003300
 Level Shifting         CNVShift        .... on
   Level shift para.    LevelShift      ....    0.2500
   Turn off err/grad.   ShiftErr        ....    0.0010
 Zerner damping         CNVZerner       .... off
 Static damping         CNVDamp         .... on
   Fraction old density DampFac         ....    0.7000
   Max. Damping (<1)    DampMax         ....    0.9800
   Min. Damping (>=0)   DampMin         ....    0.0000
   Turn off err/grad.   DampErr         ....    0.1000
 Fernandez-Rico         CNVRico         .... off

SCF Procedure:
 Maximum # iterations   MaxIter         ....   125
 SCF integral mode      SCFMode         .... Direct
   Integral package                     .... LIBINT
 Reset frequency        DirectResetFreq ....    20
 Integral Threshold     Thresh          ....  2.500e-11 Eh
 Primitive CutOff       TCut            ....  2.500e-12 Eh

Convergence Tolerance:
 Convergence Check Mode ConvCheckMode   .... Total+1el-Energy
 Convergence forced     ConvForced      .... 0
 Energy Change          TolE            ....  1.000e-08 Eh
 1-El. energy change                    ....  1.000e-05 Eh
 Orbital Gradient       TolG            ....  1.000e-05
 Orbital Rotation angle TolX            ....  1.000e-05
 DIIS Error             TolErr          ....  5.000e-07


Diagonalization of the overlap matrix:
Smallest eigenvalue                        ... 1.838e-02
Time for diagonalization                   ...    0.063 sec
Threshold for overlap eigenvalues          ... 1.000e-08
Number of eigenvalues below threshold      ... 0
Time for construction of square roots      ...    0.000 sec
Total time needed                          ...    0.064 sec

-------------------
DFT GRID GENERATION
-------------------

General Integration Accuracy     IntAcc      ...  4.340
Radial Grid Type                 RadialGrid  ... Gauss-Chebyshev
Angular Grid (max. acc.)         AngularGrid ... Lebedev-110
Angular grid pruning method      GridPruning ... 3 (G Style)
Weight generation scheme         WeightScheme... Becke
Basis function cutoff            BFCut       ...    1.0000e-11
Integration weight cutoff        WCut        ...    1.0000e-14
Grids for H and He will be reduced by one unit

# of grid points (after initial pruning)     ...   3304 (   0.0 sec)
# of grid points (after weights+screening)   ...   3254 (   0.0 sec)
nearest neighbour list constructed           ...    0.0 sec
Grid point re-assignment to atoms done       ...    0.0 sec
Grid point division into batches done        ...    0.0 sec
Reduced shell lists constructed in    0.0 sec

Total number of grid points                  ...     3254
Total number of batches                      ...       52
Average number of points per batch           ...       62
Average number of grid points per atom       ...     1085
Average number of shells per batch           ...    14.87 (92.92%)
Average number of basis functions per batch  ...    27.96 (93.21%)
Average number of large shells per batch     ...    14.21 (95.56%)
Average number of large basis fcns per batch ...    27.00 (96.56%)
Maximum spatial batch extension              ...  21.59, 13.09, 18.77 au
Average spatial batch extension              ...   6.51,  4.58,  5.37 au

Time for grid setup =    0.011 sec

------------------------------
INITIAL GUESS: MODEL POTENTIAL
------------------------------
Loading Hartree-Fock densities                     ... done
Calculating cut-offs                               ... done
Setting up the integral package                    ... done
Initializing the effective Hamiltonian             ... done
Starting the Coulomb interaction                   ... done (   0.0 sec)
Reading the grid                                   ... done
Mapping shells                                     ... done
Starting the XC term evaluation                    ... done (   0.0 sec)
  promolecular density results
     # of electrons  =      9.996459369
     EX              =     -8.780328300
     EC              =     -0.334510690
     EX+EC           =     -9.114838990
Transforming the Hamiltonian                       ... done (   0.0 sec)
Diagonalizing the Hamiltonian                      ... done (   0.0 sec)
Back transforming the eigenvectors                 ... done (   0.0 sec)
Now organizing SCF variables                       ... done
                      ------------------
                      INITIAL GUESS DONE (   0.1 sec)
                      ------------------
--------------
SCF ITERATIONS
--------------
ITER       Energy         Delta-E        Max-DP      RMS-DP      [F,P]     Damp
               ***  Starting incremental Fock matrix formation  ***
  0    -76.3034027413   0.000000000000 0.08290644  0.00636838  0.3812102 0.7000
  1    -76.3563569648  -0.052954223476 0.04368276  0.00354192  0.1523791 0.7000
                               ***Turning on DIIS***
  2    -76.3737097965  -0.017352831770 0.03778850  0.00386901  0.0363476 0.0000
  3    -76.4044744385  -0.030764641919 0.02879349  0.00219188  0.0887628 0.0000
  4    -76.4101165779  -0.005642139491 0.00602071  0.00047031  0.0126001 0.0000
                      *** Initiating the SOSCF procedure ***
                           *** Shutting down DIIS ***
                      *** Re-Reading the Fockian *** 
                      *** Removing any level shift *** 
ITER      Energy       Delta-E        Grad      Rot      Max-DP    RMS-DP
  5    -76.41028625  -0.0001696744  0.000737  0.000737  0.001469  0.000115
               *** Restarting incremental Fock matrix formation ***
  6    -76.41029202  -0.0000057691  0.000326  0.000806  0.001149  0.000073
  7    -76.41029239  -0.0000003684  0.000293  0.000150  0.000357  0.000023
  8    -76.41029264  -0.0000002544  0.000072  0.000127  0.000128  0.000013
  9    -76.41029267  -0.0000000292  0.000007  0.000017  0.000022  0.000002
                 **** Energy Check signals convergence ****
              ***Rediagonalizing the Fockian in SOSCF/NRSCF***

               *****************************************************
               *                     SUCCESS                       *
               *           SCF CONVERGED AFTER  10 CYCLES          *
               *****************************************************

Setting up the final grid:

General Integration Accuracy     IntAcc      ...  4.670
Radial Grid Type                 RadialGrid  ... Gauss-Chebyshev
Angular Grid (max. acc.)         AngularGrid ... Lebedev-302
Angular grid pruning method      GridPruning ... 3 (G Style)
Weight generation scheme         WeightScheme... Becke
Basis function cutoff            BFCut       ...    1.0000e-11
Integration weight cutoff        WCut        ...    1.0000e-14
Grids for H and He will be reduced by one unit

# of grid points (after initial pruning)     ...  13000 (   0.0 sec)
# of grid points (after weights+screening)   ...  12898 (   0.0 sec)
nearest neighbour list constructed           ...    0.0 sec
Grid point re-assignment to atoms done       ...    0.0 sec
Grid point division into batches done        ...    0.0 sec
Reduced shell lists constructed in    0.1 sec

Total number of grid points                  ...    12898
Total number of batches                      ...      203
Average number of points per batch           ...       63
Average number of grid points per atom       ...     4299
Average number of shells per batch           ...    13.52 (84.53%)
Average number of basis functions per batch  ...    25.24 (84.13%)
Average number of large shells per batch     ...    12.48 (92.28%)
Average number of large basis fcns per batch ...    23.31 (92.37%)
Maximum spatial batch extension              ...  21.92, 16.88, 16.88 au
Average spatial batch extension              ...   3.58,  3.21,  3.53 au

Final grid set up in    0.1 sec
Final integration                            ... done (   0.0 sec)
Change in XC energy                          ...    -0.000016733
Integrated number of electrons               ...     9.999990293
Previous integrated no of electrons          ...     9.998222143

----------------
TOTAL SCF ENERGY
----------------

Total Energy       :          -76.41030941 Eh           -2079.23022 eV

Components:
Nuclear Repulsion  :            9.11937986 Eh             248.15094 eV
Electronic Energy  :          -85.52968927 Eh           -2327.38117 eV
One Electron Energy:         -123.09414718 Eh           -3349.56203 eV
Two Electron Energy:           37.56445791 Eh            1022.18087 eV

Virial components:
Potential Energy   :         -152.71860489 Eh           -4155.68451 eV
Kinetic Energy     :           76.30829548 Eh            2076.45428 eV
Virial Ratio       :            2.00133687


DFT components:
N(Alpha)           :        4.999995146441 electrons
N(Beta)            :        4.999995146441 electrons
N(Total)           :        9.999990292883 electrons
E(X)               :       -7.133772562958 Eh       
E(C)               :       -0.402263599804 Eh       
E(XC)              :       -7.536036162762 Eh       
DFET-embed. en.    :        0.000000000000 Eh       

---------------
SCF CONVERGENCE
---------------

  Last Energy change         ...   -4.5486e-10  Tolerance :   1.0000e-08
  Last MAX-Density change    ...    1.1900e-06  Tolerance :   1.0000e-07
  Last RMS-Density change    ...    1.2750e-07  Tolerance :   5.0000e-09
  Last Orbital Gradient      ...    1.5432e-06  Tolerance :   1.0000e-05
  Last Orbital Rotation      ...    1.1081e-06  Tolerance :   1.0000e-05

             **** THE GBW FILE WAS UPDATED (orca.gbw) ****
             **** DENSITY FILE WAS UPDATED (orca.scfp) ****
             **** ENERGY FILE WAS UPDATED (orca.en.tmp) ****
             **** THE GBW FILE WAS UPDATED (orca.gbw) ****
             **** DENSITY FILE WAS UPDATED (orca.scfp) ****
----------------
ORBITAL ENERGIES
----------------

  NO   OCC          E(Eh)            E(eV) 
   0   2.0000     -19.099295      -519.7182 
   1   2.0000      -0.997647       -27.1474 
   2   2.0000      -0.516546       -14.0559 
   3   2.0000      -0.373051       -10.1512 
   4   2.0000      -0.295409        -8.0385 
   5   0.0000       0.031384         0.8540 
   6   0.0000       0.105333         2.8663 
   7   0.0000       0.380499        10.3539 
   8   0.0000       0.427210        11.6250 
   9   0.0000       0.764557        20.8046 
  10   0.0000       0.768437        20.9102 
  11   0.0000       0.866001        23.5651 
  12   0.0000       1.070756        29.1367 
  13   0.0000       1.244816        33.8732 
  14   0.0000       1.271647        34.6033 
  15   0.0000       1.461921        39.7809 
  16   0.0000       1.660293        45.1789 
  17   0.0000       1.919859        52.2420 
  18   0.0000       2.050883        55.8074 
  19   0.0000       2.291396        62.3521 
  20   0.0000       2.483563        67.5812 
  21   0.0000       3.115226        84.7696 
  22   0.0000       3.154671        85.8430 
  23   0.0000       3.319494        90.3280 
  24   0.0000       3.590828        97.7114 
  25   0.0000       3.822349       104.0114 
  26   0.0000       4.770773       129.8193 
  27   0.0000       5.188344       141.1820 
  28   0.0000       5.598644       152.3468 
  29   0.0000      49.842100      1356.2725 

                    ********************************
                    * MULLIKEN POPULATION ANALYSIS *
                    ********************************

-----------------------
MULLIKEN ATOMIC CHARGES
-----------------------
   0 O :   -0.468996
   1 H :    0.234498
   2 H :    0.234498
Sum of atomic charges:    0.0000000

--------------------------------
MULLIKEN REDUCED ORBITAL CHARGES
--------------------------------
  0 O s       :     3.784804  s :     3.784804
      pz      :     1.523441  p :     4.673436
      px      :     1.954588
      py      :     1.195407
      dz2     :     0.001351  d :     0.010755
      dxz     :     0.001044
      dyz     :     0.007277
      dx2y2   :     0.001083
      dxy     :     0.000000
  1 H s       :     0.698191  s :     0.698191
      pz      :     0.020652  p :     0.067311
      px      :     0.022184
      py      :     0.024475
  2 H s       :     0.698191  s :     0.698191
      pz      :     0.020652  p :     0.067311
      px      :     0.022184
      py      :     0.024475


                     *******************************
                     * LOEWDIN POPULATION ANALYSIS *
                     *******************************

----------------------
LOEWDIN ATOMIC CHARGES
----------------------
   0 O :   -0.069133
   1 H :    0.034567
   2 H :    0.034567

-------------------------------
LOEWDIN REDUCED ORBITAL CHARGES
-------------------------------
  0 O s       :     3.375624  s :     3.375624
      pz      :     1.572682  p :     4.680489
      px      :     1.887619
      py      :     1.220189
      dz2     :     0.000761  d :     0.013020
      dxz     :     0.000328
      dyz     :     0.009905
      dx2y2   :     0.002026
      dxy     :     0.000000
  1 H s       :     0.775420  s :     0.775420
      pz      :     0.068475  p :     0.190013
      px      :     0.056027
      py      :     0.065512
  2 H s       :     0.775420  s :     0.775420
      pz      :     0.068475  p :     0.190013
      px      :     0.056027
      py      :     0.065512


                      *****************************
                      * MAYER POPULATION ANALYSIS *
                      *****************************

  NA   - Mulliken gross atomic population
  ZA   - Total nuclear charge
  QA   - Mulliken gross atomic charge
  VA   - Mayer's total valence
  BVA  - Mayer's bonded valence
  FA   - Mayer's free valence

  ATOM       NA         ZA         QA         VA         BVA        FA
  0 O      8.4690     8.0000    -0.4690     1.9394     1.9394     0.0000
  1 H      0.7655     1.0000     0.2345     0.9751     0.9751     0.0000
  2 H      0.7655     1.0000     0.2345     0.9751     0.9751     0.0000

  Mayer bond orders larger than 0.100000
B(  0-O ,  1-H ) :   0.9697 B(  0-O ,  2-H ) :   0.9697 

-------
TIMINGS
-------

Total SCF time: 0 days 0 hours 0 min 1 sec 

Total time                  ....       1.378 sec
Sum of individual times     ....       1.147 sec  ( 83.2%)

Fock matrix formation       ....       0.953 sec  ( 69.1%)
  XC integration            ....       0.141 sec  ( 14.8% of F)
    Basis function eval.    ....       0.052 sec  ( 37.3% of XC)
    Density eval.           ....       0.020 sec  ( 14.0% of XC)
    XC-Functional eval.     ....       0.040 sec  ( 28.3% of XC)
    XC-Potential eval.      ....       0.020 sec  ( 13.9% of XC)
Diagonalization             ....       0.001 sec  (  0.1%)
Density matrix formation    ....       0.000 sec  (  0.0%)
Population analysis         ....       0.001 sec  (  0.0%)
Initial guess               ....       0.116 sec  (  8.4%)
Orbital Transformation      ....       0.000 sec  (  0.0%)
Orbital Orthonormalization  ....       0.000 sec  (  0.0%)
DIIS solution               ....       0.000 sec  (  0.0%)
SOSCF solution              ....       0.004 sec  (  0.3%)
Grid generation             ....       0.073 sec  (  5.3%)

-------------------------   --------------------
FINAL SINGLE POINT ENERGY       -76.410309406489
-------------------------   --------------------

------------------------------------------------------------------------------
                         ORCA SCF GRADIENT CALCULATION
------------------------------------------------------------------------------

Gradient of the Kohn-Sham DFT energy:
Kohn-Sham wavefunction type      ... RKS
Hartree-Fock exchange scaling    ...    0.200
Number of operators              ...    1
Number of atoms                  ...    3
Basis set dimensions             ...   30
Integral neglect threshold       ... 2.5e-11
Integral primitive cutoff        ... 2.5e-12

Nuclear repulsion gradient       ... done
One Electron Gradient            ... done
Pre-screening matrix             ... done
Starting the two electron gradient:
Two electron gradient done
Exchange-correlation gradient    ... done

------------------
CARTESIAN GRADIENT
------------------

   1   O   :   -0.000000000    0.000000000   -0.003643681
   2   H   :    0.000000000    0.002454069    0.001821840
   3   H   :   -0.000000000   -0.002454070    0.001821841

Difference to translation invariance:
           :    0.0000000000    0.0000000000   -0.0000000000

Norm of the cartesian gradient     ...    0.0056532761
RMS gradient                       ...    0.0018844254
MAX gradient                       ...    0.0036436810

-------
TIMINGS
-------

Total SCF gradient time            ...        0.313 sec

One electron gradient       ....       0.001 sec  (  0.4%)
Prescreening matrices       ....       0.004 sec  (  1.2%)
Two electron gradient       ....       0.026 sec  (  8.4%)
XC gradient                 ....       0.173 sec  ( 55.5%)
------------------------------------------------------------------------------
                         ORCA GEOMETRY RELAXATION STEP
------------------------------------------------------------------------------

Reading the OPT-File                    .... done
Getting information on internals        .... done
Copying old internal coords+grads       .... done
Making the new internal coordinates     .... (new redundants).... done
Validating the new internal coordinates .... (new redundants).... done
Calculating the B-matrix                .... done
Calculating the G,G- and P matrices     .... done
Transforming gradient to internals      .... done
Projecting the internal gradient        .... done
Number of atoms                         ....   3
Number of internal coordinates          ....   3
Current Energy                          ....   -76.410309406 Eh
Current gradient norm                   ....     0.005653276 Eh/bohr
Maximum allowed component of the step   ....  0.300
Current trust radius                    ....  0.300
Evaluating the initial hessian          ....  (Almloef) done
Projecting the Hessian                  .... done
Forming the augmented Hessian           .... done
Diagonalizing the augmented Hessian     .... done
Last element of RFO vector              ....  0.999963991
Lowest eigenvalues of augmented Hessian:
 -0.000036684  0.319779677  0.509876244
Length of the computed step             ....  0.008486629
The final length of the internal step   ....  0.008486629
Converting the step to cartesian space:
 Initial RMS(Int)=    0.0048997576
Transforming coordinates:
 Iter   0:  RMS(Cart)=    0.0025185213 RMS(Int)=    0.0048997660
 Iter   1:  RMS(Cart)=    0.0000004994 RMS(Int)=    0.0000008958
 Iter   2:  RMS(Cart)=    0.0000000016 RMS(Int)=    0.0000000030
done
Storing new coordinates                 .... done

                                .--------------------.
          ----------------------|Geometry convergence|-------------------------
          Item                value                   Tolerance       Converged
          ---------------------------------------------------------------------
          RMS gradient        0.0024961362            0.0001000000      NO
          MAX gradient        0.0030552914            0.0003000000      NO
          RMS step            0.0048997576            0.0020000000      NO
          MAX step            0.0059917904            0.0040000000      NO
          ........................................................
          Max(Bonds)      0.0032      Max(Angles)    0.03
          Max(Dihed)        0.00      Max(Improp)    0.00
          ---------------------------------------------------------------------

The optimization has not yet converged - more geometry cycles are needed


    ---------------------------------------------------------------------------
                         Redundant Internal Coordinates
                            (Angstroem and degrees)

        Definition                    Value    dE/dq     Step     New-Value
    ----------------------------------------------------------------------------
     1. B(H   1,O   0)                0.9653  0.003055 -0.0032    0.9622   
     2. B(H   2,O   0)                0.9653  0.003055 -0.0032    0.9622   
     3. A(H   1,O   0,H   2)          103.74  0.000150   -0.03    103.71   
    ----------------------------------------------------------------------------

         *************************************************************
         *                GEOMETRY OPTIMIZATION CYCLE   2            *
         *************************************************************
---------------------------------
CARTESIAN COORDINATES (ANGSTROEM)
---------------------------------
  O     -0.952268   -0.000000   -0.996518
  H     -0.952268    0.756704   -0.402255
  H     -0.952268   -0.756704   -0.402255

----------------------------
CARTESIAN COORDINATES (A.U.)
----------------------------
  NO LB      ZA    FRAG     MASS         X           Y           Z
   0 O     8.0000    0    15.999   -1.799525   -0.000000   -1.883146
   1 H     1.0000    0     1.008   -1.799525    1.429963   -0.760152
   2 H     1.0000    0     1.008   -1.799525   -1.429963   -0.760152

--------------------------------
INTERNAL COORDINATES (ANGSTROEM)
--------------------------------
 O      0   0   0     0.000000000000     0.00000000     0.00000000
 H      1   0   0     0.962158208432     0.00000000     0.00000000
 H      1   2   0     0.962158208159   103.71272457     0.00000000

---------------------------
INTERNAL COORDINATES (A.U.)
---------------------------
 O      0   0   0     0.000000000000     0.00000000     0.00000000
 H      1   0   0     1.818215511441     0.00000000     0.00000000
 H      1   2   0     1.818215510924   103.71272457     0.00000000


Diagonalization of the overlap matrix:
Smallest eigenvalue                        ... 1.816e-02
Time for diagonalization                   ...    0.000 sec
Threshold for overlap eigenvalues          ... 1.000e-08
Number of eigenvalues below threshold      ... 0
Time for construction of square roots      ...    0.000 sec
Total time needed                          ...    0.001 sec

-------------------
DFT GRID GENERATION
-------------------

General Integration Accuracy     IntAcc      ...  4.340
Radial Grid Type                 RadialGrid  ... Gauss-Chebyshev
Angular Grid (max. acc.)         AngularGrid ... Lebedev-110
Angular grid pruning method      GridPruning ... 3 (G Style)
Weight generation scheme         WeightScheme... Becke
Basis function cutoff            BFCut       ...    1.0000e-11
Integration weight cutoff        WCut        ...    1.0000e-14
Grids for H and He will be reduced by one unit

# of grid points (after initial pruning)     ...   3304 (   0.0 sec)
# of grid points (after weights+screening)   ...   3254 (   0.0 sec)
nearest neighbour list constructed           ...    0.0 sec
Grid point re-assignment to atoms done       ...    0.0 sec
Grid point division into batches done        ...    0.0 sec
Reduced shell lists constructed in    0.0 sec

Total number of grid points                  ...     3254
Total number of batches                      ...       52
Average number of points per batch           ...       62
Average number of grid points per atom       ...     1085
Average number of shells per batch           ...    14.92 (93.28%)
Average number of basis functions per batch  ...    28.17 (93.90%)
Average number of large shells per batch     ...    14.15 (94.82%)
Average number of large basis fcns per batch ...    26.79 (95.11%)
Maximum spatial batch extension              ...  25.65, 13.09, 18.77 au
Average spatial batch extension              ...   6.10,  4.29,  5.32 au

Time for grid setup =    0.009 sec

--------------
SCF ITERATIONS
--------------
ITER       Energy         Delta-E        Max-DP      RMS-DP      [F,P]     Damp
               ***  Starting incremental Fock matrix formation  ***
                      *** Initiating the SOSCF procedure ***
                      *** Re-Reading the Fockian *** 
                      *** Removing any level shift *** 
ITER      Energy       Delta-E        Grad      Rot      Max-DP    RMS-DP
  0    -76.41030591 -76.4103059054  0.001108  0.001108  0.000646  0.000080
               *** Restarting incremental Fock matrix formation ***
  1    -76.41031065  -0.0000047412  0.000471  0.000443  0.000989  0.000061
  2    -76.41031041   0.0000002374  0.000546  0.000232  0.000472  0.000034
  3    -76.41031141  -0.0000009967  0.000021  0.000016  0.000020  0.000002
  4    -76.41031141  -0.0000000017  0.000008  0.000003  0.000007  0.000001
                 **** Energy Check signals convergence ****
              ***Rediagonalizing the Fockian in SOSCF/NRSCF***

               *****************************************************
               *                     SUCCESS                       *
               *           SCF CONVERGED AFTER   5 CYCLES          *
               *****************************************************

Setting up the final grid:

General Integration Accuracy     IntAcc      ...  4.670
Radial Grid Type                 RadialGrid  ... Gauss-Chebyshev
Angular Grid (max. acc.)         AngularGrid ... Lebedev-302
Angular grid pruning method      GridPruning ... 3 (G Style)
Weight generation scheme         WeightScheme... Becke
Basis function cutoff            BFCut       ...    1.0000e-11
Integration weight cutoff        WCut        ...    1.0000e-14
Grids for H and He will be reduced by one unit

# of grid points (after initial pruning)     ...  13000 (   0.0 sec)
# of grid points (after weights+screening)   ...  12898 (   0.0 sec)
nearest neighbour list constructed           ...    0.0 sec
Grid point re-assignment to atoms done       ...    0.0 sec
Grid point division into batches done        ...    0.0 sec
Reduced shell lists constructed in    0.1 sec

Total number of grid points                  ...    12898
Total number of batches                      ...      204
Average number of points per batch           ...       63
Average number of grid points per atom       ...     4299
Average number of shells per batch           ...    13.55 (84.66%)
Average number of basis functions per batch  ...    25.26 (84.21%)
Average number of large shells per batch     ...    12.47 (92.08%)
Average number of large basis fcns per batch ...    23.24 (92.01%)
Maximum spatial batch extension              ...  21.92, 16.88, 16.88 au
Average spatial batch extension              ...   3.56,  3.22,  3.54 au

Final grid set up in    0.1 sec
Final integration                            ... done (   0.0 sec)
Change in XC energy                          ...    -0.000015835
Integrated number of electrons               ...     9.999990708
Previous integrated no of electrons          ...     9.998205766
Total Energy       :          -76.41032724 Eh           -2079.23071 eV
  Last Energy change         ...   -2.1795e-10  Tolerance :   1.0000e-08
  Last MAX-Density change    ...    3.0975e-07  Tolerance :   1.0000e-07
             **** THE GBW FILE WAS UPDATED (orca.gbw) ****
             **** DENSITY FILE WAS UPDATED (orca.scfp) ****
             **** ENERGY FILE WAS UPDATED (orca.en.tmp) ****
             **** THE GBW FILE WAS UPDATED (orca.gbw) ****
             **** DENSITY FILE WAS UPDATED (orca.scfp) ****
Total SCF time: 0 days 0 hours 0 min 0 sec 

-------------------------   --------------------
FINAL SINGLE POINT ENERGY       -76.410327243369
-------------------------   --------------------

------------------------------------------------------------------------------
                         ORCA SCF GRADIENT CALCULATION
------------------------------------------------------------------------------

Gradient of the Kohn-Sham DFT energy:
Kohn-Sham wavefunction type      ... RKS
Hartree-Fock exchange scaling    ...    0.200
Number of operators              ...    1
Number of atoms                  ...    3
Basis set dimensions             ...   30
Integral neglect threshold       ... 2.5e-11
Integral primitive cutoff        ... 2.5e-12

Nuclear repulsion gradient       ... done
One Electron Gradient            ... done
Pre-screening matrix             ... done
Starting the two electron gradient:
Two electron gradient done
Exchange-correlation gradient    ... done

------------------
CARTESIAN GRADIENT
------------------

   1   O   :   -0.000000000    0.000000000   -0.000133145
   2   H   :    0.000000000   -0.000173380    0.000066572
   3   H   :    0.000000000    0.000173380    0.000066573

Difference to translation invariance:
           :    0.0000000000    0.0000000000   -0.0000000000

Norm of the cartesian gradient     ...    0.0002944697
RMS gradient                       ...    0.0000981566
MAX gradient                       ...    0.0001733796

-------
TIMINGS
-------

Total SCF gradient time            ...        0.248 sec

One electron gradient       ....       0.001 sec  (  0.5%)
Prescreening matrices       ....       0.004 sec  (  1.5%)
Two electron gradient       ....       0.027 sec  ( 10.9%)
XC gradient                 ....       0.107 sec  ( 43.1%)
------------------------------------------------------------------------------
                         ORCA GEOMETRY RELAXATION STEP
------------------------------------------------------------------------------

Reading the OPT-File                    .... done
Getting information on internals        .... done
Copying old internal coords+grads       .... done
Making the new internal coordinates     .... (new redundants).... done
Validating the new internal coordinates .... (new redundants).... done
Calculating the B-matrix                .... done
Calculating the G,G- and P matrices     .... done
Transforming gradient to internals      .... done
Projecting the internal gradient        .... done
Number of atoms                         ....   3
Number of internal coordinates          ....   3
Current Energy                          ....   -76.410327243 Eh
Current gradient norm                   ....     0.000294470 Eh/bohr
Maximum allowed component of the step   ....  0.300
Current trust radius                    ....  0.300
Updating the Hessian (BFGS)             .... done
Forming the augmented Hessian           .... done
Diagonalizing the augmented Hessian     .... done
Last element of RFO vector              ....  0.999999599
Lowest eigenvalues of augmented Hessian:
 -0.000000280  0.318643331  0.509876244
Length of the computed step             ....  0.000895751
The final length of the internal step   ....  0.000895751
Converting the step to cartesian space:
 Initial RMS(Int)=    0.0005171621
Transforming coordinates:
 Iter   0:  RMS(Cart)=    0.0003190358 RMS(Int)=    0.0005171554
 Iter   1:  RMS(Cart)=    0.0000000627 RMS(Int)=    0.0000001468
done
Storing new coordinates                 .... done

                                .--------------------.
          ----------------------|Geometry convergence|-------------------------
          Item                value                   Tolerance       Converged
          ---------------------------------------------------------------------
          Energy change      -0.0000178369            0.0000050000      NO
          RMS gradient        0.0001845565            0.0001000000      NO
          MAX gradient        0.0002899005            0.0003000000      YES
          RMS step            0.0005171621            0.0020000000      YES
          MAX step            0.0008730286            0.0040000000      YES
          ........................................................
          Max(Bonds)      0.0001      Max(Angles)    0.05
          Max(Dihed)        0.00      Max(Improp)    0.00
          ---------------------------------------------------------------------

       The step convergence is overachieved with 
       reasonable convergence on the gradient
       Convergence will therefore be signaled now


                    ***********************HURRAY********************
                    ***        THE OPTIMIZATION HAS CONVERGED     ***
                    *************************************************


    ---------------------------------------------------------------------------
                         Redundant Internal Coordinates

                          --- Optimized Parameters ---  
                            (Angstroem and degrees)

        Definition                    OldVal   dE/dq     Step     FinalVal
    ----------------------------------------------------------------------------
     1. B(H   1,O   0)                0.9622 -0.000095  0.0001    0.9622   
     2. B(H   2,O   0)                0.9622 -0.000095  0.0001    0.9622   
     3. A(H   1,O   0,H   2)          103.71 -0.000290    0.05    103.76   
    ----------------------------------------------------------------------------
                 *******************************************************
                 *** FINAL ENERGY EVALUATION AT THE STATIONARY POINT ***
                 ***               (AFTER    2 CYCLES)               ***
                 *******************************************************
---------------------------------
CARTESIAN COORDINATES (ANGSTROEM)
---------------------------------
  O     -0.952268   -0.000000   -0.996328
  H     -0.952268    0.757022   -0.402350
  H     -0.952268   -0.757022   -0.402350

----------------------------
CARTESIAN COORDINATES (A.U.)
----------------------------
  NO LB      ZA    FRAG     MASS         X           Y           Z
   0 O     8.0000    0    15.999   -1.799525   -0.000000   -1.882788
   1 H     1.0000    0     1.008   -1.799525    1.430564   -0.760331
   2 H     1.0000    0     1.008   -1.799525   -1.430564   -0.760331

--------------------------------
INTERNAL COORDINATES (ANGSTROEM)
--------------------------------
 O      0   0   0     0.000000000000     0.00000000     0.00000000
 H      1   0   0     0.962233223875     0.00000000     0.00000000
 H      1   2   0     0.962233223422   103.76274542     0.00000000

---------------------------
INTERNAL COORDINATES (A.U.)
---------------------------
 O      0   0   0     0.000000000000     0.00000000     0.00000000
 H      1   0   0     1.818357270083     0.00000000     0.00000000
 H      1   2   0     1.818357269229   103.76274542     0.00000000

---------------------
BASIS SET INFORMATION
---------------------
There are 2 groups of distinct atoms

 Group   1 Type O   : 11s5p1d contracted to 4s3p1d pattern {6311/311/1}
 Group   2 Type H   : 5s1p contracted to 3s1p pattern {311/1}

Atom   0O    basis set group =>   1
Atom   1H    basis set group =>   2
Atom   2H    basis set group =>   2
------------------------------------------------------------------------------
                           ORCA GTO INTEGRAL CALCULATION
------------------------------------------------------------------------------

                         BASIS SET STATISTICS AND STARTUP INFO

 # of primitive gaussian shells          ...   29
 # of primitive gaussian functions       ...   47
 # of contracted shells                  ...   16
 # of contracted basis functions         ...   30
 Highest angular momentum                ...    2
 Maximum contraction depth               ...    6
 Integral package used                   ... LIBINT
 Integral threshhold            Thresh   ...  2.500e-11
 Primitive cut-off              TCut     ...  2.500e-12


------------------------------ INTEGRAL EVALUATION ----------------------------


 * One electron integrals 
 Pre-screening matrix                    ... done
 Shell pair data                         ... done (   0.000 sec)

-------------------------------------------------------------------------------
                                 ORCA SCF
-------------------------------------------------------------------------------

------------
SCF SETTINGS
------------
Hamiltonian:
 Density Functional     Method          .... DFT(GTOs)
 Exchange Functional    Exchange        .... B88
   X-Alpha parameter    XAlpha          ....  0.666667
   Becke's b parameter  XBeta           ....  0.004200
 Correlation Functional Correlation     .... LYP
 LDA part of GGA corr.  LDAOpt          .... VWN-5
 Gradients option       PostSCFGGA      .... off
 Hybrid DFT is turned on
   Fraction HF Exchange ScalHFX         ....  0.200000
   Scaling of DF-GGA-X  ScalDFX         ....  0.720000
   Scaling of DF-GGA-C  ScalDFC         ....  0.810000
   Scaling of DF-LDA-C  ScalLDAC        ....  1.000000
   Perturbative correction              ....  0.000000
   Density functional embedding theory  .... OFF
   NL short-range parameter             ....  4.800000


General Settings:
 Integral files         IntName         .... orca
 Hartree-Fock type      HFTyp           .... RHF
 Total Charge           Charge          ....    0
 Multiplicity           Mult            ....    1
 Number of Electrons    NEL             ....   10
 Basis Dimension        Dim             ....   30
 Nuclear Repulsion      ENuc            ....      9.1486633542 Eh

Convergence Acceleration:
 DIIS                   CNVDIIS         .... on
   Start iteration      DIISMaxIt       ....    12
   Startup error        DIISStart       ....  0.200000
   # of expansion vecs  DIISMaxEq       ....     5
   Bias factor          DIISBfac        ....   1.050
   Max. coefficient     DIISMaxC        ....  10.000
 Newton-Raphson         CNVNR           .... off
 SOSCF                  CNVSOSCF        .... on
   Start iteration      SOSCFMaxIt      ....   150
   Startup grad/error   SOSCFStart      ....  0.003300
 Level Shifting         CNVShift        .... on
   Level shift para.    LevelShift      ....    0.2500
   Turn off err/grad.   ShiftErr        ....    0.0010
 Zerner damping         CNVZerner       .... off
 Static damping         CNVDamp         .... on
   Fraction old density DampFac         ....    0.7000
   Max. Damping (<1)    DampMax         ....    0.9800
   Min. Damping (>=0)   DampMin         ....    0.0000
   Turn off err/grad.   DampErr         ....    0.1000
 Fernandez-Rico         CNVRico         .... off

SCF Procedure:
 Maximum # iterations   MaxIter         ....   125
 SCF integral mode      SCFMode         .... Direct
   Integral package                     .... LIBINT
 Reset frequency        DirectResetFreq ....    20
 Integral Threshold     Thresh          ....  2.500e-11 Eh
 Primitive CutOff       TCut            ....  2.500e-12 Eh

Convergence Tolerance:
 Convergence Check Mode ConvCheckMode   .... Total+1el-Energy
 Convergence forced     ConvForced      .... 0
 Energy Change          TolE            ....  1.000e-08 Eh
 1-El. energy change                    ....  1.000e-05 Eh
 Orbital Gradient       TolG            ....  1.000e-05
 Orbital Rotation angle TolX            ....  1.000e-05
 DIIS Error             TolErr          ....  5.000e-07


Diagonalization of the overlap matrix:
Smallest eigenvalue                        ... 1.817e-02
Time for diagonalization                   ...    0.000 sec
Threshold for overlap eigenvalues          ... 1.000e-08
Number of eigenvalues below threshold      ... 0
Time for construction of square roots      ...    0.000 sec
Total time needed                          ...    0.001 sec

---------------------
INITIAL GUESS: MOREAD
---------------------
Guess MOs are being read from file: orca.gbw
Input Geometry matches current geometry (good)
Input basis set matches current basis set (good)
MOs were renormalized
MOs were reorthogonalized (Cholesky)
                      ------------------
                      INITIAL GUESS DONE (   0.0 sec)
                      ------------------
-------------------
DFT GRID GENERATION
-------------------

General Integration Accuracy     IntAcc      ...  4.340
Radial Grid Type                 RadialGrid  ... Gauss-Chebyshev
Angular Grid (max. acc.)         AngularGrid ... Lebedev-110
Angular grid pruning method      GridPruning ... 3 (G Style)
Weight generation scheme         WeightScheme... Becke
Basis function cutoff            BFCut       ...    1.0000e-11
Integration weight cutoff        WCut        ...    1.0000e-14
Grids for H and He will be reduced by one unit

# of grid points (after initial pruning)     ...   3304 (   0.0 sec)
# of grid points (after weights+screening)   ...   3254 (   0.0 sec)
nearest neighbour list constructed           ...    0.0 sec
Grid point re-assignment to atoms done       ...    0.0 sec
Grid point division into batches done        ...    0.0 sec
Reduced shell lists constructed in    0.0 sec

Total number of grid points                  ...     3254
Total number of batches                      ...       52
Average number of points per batch           ...       62
Average number of grid points per atom       ...     1085
Average number of shells per batch           ...    14.92 (93.28%)
Average number of basis functions per batch  ...    28.17 (93.90%)
Average number of large shells per batch     ...    14.13 (94.69%)
Average number of large basis fcns per batch ...    26.77 (95.04%)
Maximum spatial batch extension              ...  25.65, 13.09, 18.77 au
Average spatial batch extension              ...   6.10,  4.28,  5.31 au

Time for grid setup =    0.009 sec

--------------
SCF ITERATIONS
--------------
ITER       Energy         Delta-E        Max-DP      RMS-DP      [F,P]     Damp
               ***  Starting incremental Fock matrix formation  ***
                      *** Initiating the SOSCF procedure ***
                      *** Re-Reading the Fockian *** 
                      *** Removing any level shift *** 
ITER      Energy       Delta-E        Grad      Rot      Max-DP    RMS-DP
  0    -76.41031155 -76.4103115536  0.000098  0.000098  0.000173  0.000013
               *** Restarting incremental Fock matrix formation ***
  1    -76.41031159  -0.0000000346  0.000018  0.000023  0.000068  0.000005
  2    -76.41031159  -0.0000000013  0.000010  0.000008  0.000018  0.000001
  3    -76.41031159  -0.0000000002  0.000007  0.000004  0.000012  0.000001
                 **** Energy Check signals convergence ****
              ***Rediagonalizing the Fockian in SOSCF/NRSCF***

               *****************************************************
               *                     SUCCESS                       *
               *           SCF CONVERGED AFTER   4 CYCLES          *
               *****************************************************

Setting up the final grid:

General Integration Accuracy     IntAcc      ...  4.670
Radial Grid Type                 RadialGrid  ... Gauss-Chebyshev
Angular Grid (max. acc.)         AngularGrid ... Lebedev-302
Angular grid pruning method      GridPruning ... 3 (G Style)
Weight generation scheme         WeightScheme... Becke
Basis function cutoff            BFCut       ...    1.0000e-11
Integration weight cutoff        WCut        ...    1.0000e-14
Grids for H and He will be reduced by one unit

# of grid points (after initial pruning)     ...  13000 (   0.0 sec)
# of grid points (after weights+screening)   ...  12898 (   0.0 sec)
nearest neighbour list constructed           ...    0.0 sec
Grid point re-assignment to atoms done       ...    0.0 sec
Grid point division into batches done        ...    0.0 sec
Reduced shell lists constructed in    0.1 sec

Total number of grid points                  ...    12898
Total number of batches                      ...      204
Average number of points per batch           ...       63
Average number of grid points per atom       ...     4299
Average number of shells per batch           ...    13.56 (84.73%)
Average number of basis functions per batch  ...    25.26 (84.21%)
Average number of large shells per batch     ...    12.49 (92.12%)
Average number of large basis fcns per batch ...    23.27 (92.10%)
Maximum spatial batch extension              ...  21.92, 16.88, 16.88 au
Average spatial batch extension              ...   3.60,  3.19,  3.51 au

Final grid set up in    0.1 sec
Final integration                            ... done (   0.0 sec)
Change in XC energy                          ...    -0.000015802
Integrated number of electrons               ...     9.999990707
Previous integrated no of electrons          ...     9.998210316

----------------
TOTAL SCF ENERGY
----------------

Total Energy       :          -76.41032739 Eh           -2079.23071 eV

Components:
Nuclear Repulsion  :            9.14866335 Eh             248.94779 eV
Electronic Energy  :          -85.55899075 Eh           -2328.17850 eV
One Electron Energy:         -123.14635400 Eh           -3350.98265 eV
Two Electron Energy:           37.58736325 Eh            1022.80415 eV

Virial components:
Potential Energy   :         -152.72934312 Eh           -4155.97671 eV
Kinetic Energy     :           76.31901572 Eh            2076.74600 eV
Virial Ratio       :            2.00119645


DFT components:
N(Alpha)           :        4.999995353295 electrons
N(Beta)            :        4.999995353295 electrons
N(Total)           :        9.999990706589 electrons
E(X)               :       -7.136007928771 Eh       
E(C)               :       -0.402378939167 Eh       
E(XC)              :       -7.538386867939 Eh       
DFET-embed. en.    :        0.000000000000 Eh       

---------------
SCF CONVERGENCE
---------------

  Last Energy change         ...   -1.6011e-10  Tolerance :   1.0000e-08
  Last MAX-Density change    ...    3.2693e-07  Tolerance :   1.0000e-07
  Last RMS-Density change    ...    3.3523e-08  Tolerance :   5.0000e-09
  Last Orbital Gradient      ...    3.5946e-07  Tolerance :   1.0000e-05
  Last Orbital Rotation      ...    2.4370e-07  Tolerance :   1.0000e-05

             **** THE GBW FILE WAS UPDATED (orca.gbw) ****
             **** DENSITY FILE WAS UPDATED (orca.scfp) ****
             **** ENERGY FILE WAS UPDATED (orca.en.tmp) ****
             **** THE GBW FILE WAS UPDATED (orca.gbw) ****
             **** DENSITY FILE WAS UPDATED (orca.scfp) ****
----------------
ORBITAL ENERGIES
----------------

  NO   OCC          E(Eh)            E(eV) 
   0   2.0000     -19.098780      -519.7042 
   1   2.0000      -0.998961       -27.1831 
   2   2.0000      -0.517738       -14.0884 
   3   2.0000      -0.373226       -10.1560 
   4   2.0000      -0.295635        -8.0446 
   5   0.0000       0.031994         0.8706 
   6   0.0000       0.105991         2.8842 
   7   0.0000       0.381999        10.3947 
   8   0.0000       0.428989        11.6734 
   9   0.0000       0.764330        20.7985 
  10   0.0000       0.768400        20.9092 
  11   0.0000       0.866492        23.5784 
  12   0.0000       1.070387        29.1267 
  13   0.0000       1.244047        33.8522 
  14   0.0000       1.272192        34.6181 
  15   0.0000       1.462608        39.7996 
  16   0.0000       1.662849        45.2484 
  17   0.0000       1.923789        52.3490 
  18   0.0000       2.054101        55.8949 
  19   0.0000       2.292166        62.3730 
  20   0.0000       2.483120        67.5691 
  21   0.0000       3.117801        84.8397 
  22   0.0000       3.157889        85.9305 
  23   0.0000       3.323637        90.4408 
  24   0.0000       3.593186        97.7756 
  25   0.0000       3.825917       104.1085 
  26   0.0000       4.771363       129.8354 
  27   0.0000       5.191890       141.2785 
  28   0.0000       5.608640       152.6189 
  29   0.0000      49.845929      1356.3767 

                    ********************************
                    * MULLIKEN POPULATION ANALYSIS *
                    ********************************

-----------------------
MULLIKEN ATOMIC CHARGES
-----------------------
   0 O :   -0.468553
   1 H :    0.234277
   2 H :    0.234277
Sum of atomic charges:   -0.0000000

--------------------------------
MULLIKEN REDUCED ORBITAL CHARGES
--------------------------------
  0 O s       :     3.783252  s :     3.783252
      pz      :     1.524502  p :     4.674459
      px      :     1.954141
      py      :     1.195815
      dz2     :     0.001360  d :     0.010843
      dxz     :     0.001052
      dyz     :     0.007336
      dx2y2   :     0.001094
      dxy     :     0.000000
  1 H s       :     0.698070  s :     0.698070
      pz      :     0.020732  p :     0.067653
      px      :     0.022403
      py      :     0.024517
  2 H s       :     0.698070  s :     0.698070
      pz      :     0.020732  p :     0.067653
      px      :     0.022403
      py      :     0.024517


                     *******************************
                     * LOEWDIN POPULATION ANALYSIS *
                     *******************************

----------------------
LOEWDIN ATOMIC CHARGES
----------------------
   0 O :   -0.065531
   1 H :    0.032766
   2 H :    0.032766

-------------------------------
LOEWDIN REDUCED ORBITAL CHARGES
-------------------------------
  0 O s       :     3.371302  s :     3.371302
      pz      :     1.574016  p :     4.681096
      px      :     1.886325
      py      :     1.220755
      dz2     :     0.000760  d :     0.013134
      dxz     :     0.000326
      dyz     :     0.010001
      dx2y2   :     0.002046
      dxy     :    -0.000000
  1 H s       :     0.775770  s :     0.775770
      pz      :     0.068988  p :     0.191464
      px      :     0.056675
      py      :     0.065802
  2 H s       :     0.775770  s :     0.775770
      pz      :     0.068988  p :     0.191464
      px      :     0.056675
      py      :     0.065802


                      *****************************
                      * MAYER POPULATION ANALYSIS *
                      *****************************

  NA   - Mulliken gross atomic population
  ZA   - Total nuclear charge
  QA   - Mulliken gross atomic charge
  VA   - Mayer's total valence
  BVA  - Mayer's bonded valence
  FA   - Mayer's free valence

  ATOM       NA         ZA         QA         VA         BVA        FA
  0 O      8.4686     8.0000    -0.4686     1.9405     1.9405    -0.0000
  1 H      0.7657     1.0000     0.2343     0.9757     0.9757    -0.0000
  2 H      0.7657     1.0000     0.2343     0.9757     0.9757    -0.0000

  Mayer bond orders larger than 0.100000
B(  0-O ,  1-H ) :   0.9703 B(  0-O ,  2-H ) :   0.9703 

-------
TIMINGS
-------

Total SCF time: 0 days 0 hours 0 min 0 sec 

Total time                  ....       0.660 sec
Sum of individual times     ....       0.502 sec  ( 76.0%)

Fock matrix formation       ....       0.429 sec  ( 64.9%)
  XC integration            ....       0.083 sec  ( 19.3% of F)
    Basis function eval.    ....       0.031 sec  ( 37.7% of XC)
    Density eval.           ....       0.011 sec  ( 13.7% of XC)
    XC-Functional eval.     ....       0.024 sec  ( 28.7% of XC)
    XC-Potential eval.      ....       0.011 sec  ( 13.1% of XC)
Diagonalization             ....       0.000 sec  (  0.0%)
Density matrix formation    ....       0.000 sec  (  0.0%)
Population analysis         ....       0.000 sec  (  0.1%)
Initial guess               ....       0.000 sec  (  0.1%)
Orbital Transformation      ....       0.000 sec  (  0.0%)
Orbital Orthonormalization  ....       0.000 sec  (  0.0%)
DIIS solution               ....       0.000 sec  (  0.0%)
SOSCF solution              ....       0.001 sec  (  0.1%)
Grid generation             ....       0.072 sec  ( 10.8%)

-------------------------   --------------------
FINAL SINGLE POINT ENERGY       -76.410327391997
-------------------------   --------------------

                                *** OPTIMIZATION RUN DONE ***

                            ***************************************
                            *     ORCA property calculations      *
                            ***************************************

                                    ---------------------
                                    Active property flags
                                    ---------------------
   (+) Dipole Moment


------------------------------------------------------------------------------
                       ORCA ELECTRIC PROPERTIES CALCULATION
------------------------------------------------------------------------------

Dipole Moment Calculation                       ... on
Quadrupole Moment Calculation                   ... off
Polarizability Calculation                      ... off
GBWName                                         ... orca.gbw
Electron density file                           ... orca.scfp
The origin for moment calculation is the CENTER OF MASS  = (-1.799525, -0.000000 -1.757177)

-------------
DIPOLE MOMENT
-------------
                                X             Y             Z
Electronic contribution:     -0.00000      -0.00000      -0.17607
Nuclear contribution   :      0.00000       0.00000       0.98881
                        -----------------------------------------
Total Dipole Moment    :     -0.00000       0.00000       0.81274
                        -----------------------------------------
Magnitude (a.u.)       :      0.81274
Magnitude (Debye)      :      2.06582



--------------------
Rotational spectrum 
--------------------
 
Rotational constants in cm-1:    26.687400    14.591147     9.433466 
Rotational constants in MHz : 800068.109412 437431.571492 282808.194460 

 Dipole components along the rotational axes: 
x,y,z [a.u.] :     0.000000     0.812741    -0.000000 
x,y,z [Debye]:     0.000000     2.065822    -0.000000 

 

-------------------------------------------------------------------------------
                               ORCA SCF HESSIAN
-------------------------------------------------------------------------------

Hessian of the Kohn-Sham DFT energy:
Kohn-Sham wavefunction type                      ... RKS
Hartree-Fock exchange scaling                    ...    0.200
Number of operators                              ...    1
Number of atoms                                  ...    3
Basis set dimensions                             ...   30
Integral neglect threshold                       ... 2.5e-11
Integral primitive cutoff                        ... 2.5e-12

Setting up DFT Hessian calculations              ... 
Electron density on the grid                     ... found on disk
Electron density on the final grid               ... found on disk
Building xc-kernel on the grid                   ... done   (      0.0 sec)
Building xc-kernel on the final grid             ... done   (      0.0 sec)
                                                     done   (      0.0 sec)

Nuclear repulsion Hessian                        ... done   (      0.0 sec)

----------------------------------------------
Forming right-hand sides of CP-SCF equations     ...
----------------------------------------------
One electron integral derivatives                ... done   (      0.1 sec)
Transforming the overlap derivative matrices     ... done   (      0.1 sec)
Making the Q(x) pseudodensities                  ... done   (      0.0 sec)
Adding the E*S(x)*S(y) terms to the Hessian      ... done   (      0.0 sec)
Calculating energy weighted overlap derivatives  ... done   (      0.0 sec)
Two electron integral derivatives                ... done   (      0.1 sec)
Exchange-correlation integral derivatives        ... done   (      0.3 sec)
tr(F(y)Q(x)) contribution to the Hessian         ... done   (      0.0 sec)
Response fock operator R(S(x))                   ... done   (      0.1 sec)
XC Response fock operator R(S(x))                ... done   (      0.1 sec)
tr(F(y)S(x)) contribution to the Hessian         ... done   (      0.0 sec)
Transforming and finalizing RHSs                 ... done   (      0.0 sec)

----------------------------------------------
Solving the CP-SCF equations                     ...
----------------------------------------------

WARNING    : Tol<Thresh in CP-SCF. This will prevent convergence
CONSEQUENCE:  Setting Tol to 2.500e-10

     CP-SCF ITERATION   0: 
     CP-SCF ITERATION   1:      0.000357028672
     CP-SCF ITERATION   2:      0.000006214965
     CP-SCF ITERATION   3:      0.000000097414
     CP-SCF ITERATION   4:      0.000000001534
     CP-SCF ITERATION   5:      0.000000000206

                                                 ... done   (      0.8 sec)
Forming perturbed density Hessian contributions  ... done   (      0.0 sec)
Making the perturbed densities                   ... done   (      0.0 sec)
2nd integral derivative contribs                 ... done   (      0.3 sec)
Exchange-correlation Hessian                     ... done   (      0.6 sec)
Dipol derivatives                                ... done   (      0.1 sec)

Total SCF Hessian time: 0 days 0 hours 0 min 2 sec 

Writing the Hessian file to the disk             ... done


Maximum memory used throughout the entire calculation: 102.5 MB

-----------------------
VIBRATIONAL FREQUENCIES
-----------------------

Scaling factor for frequencies =  1.000000000  (already applied!)

   0:         0.00 cm**-1
   1:         0.00 cm**-1
   2:         0.00 cm**-1
   3:         0.00 cm**-1
   4:         0.00 cm**-1
   5:         0.00 cm**-1
   6:      1639.32 cm**-1
   7:      3806.95 cm**-1
   8:      3903.38 cm**-1


------------
NORMAL MODES
------------

These modes are the Cartesian displacements weighted by the diagonal matrix
M(i,i)=1/sqrt(m[i]) where m[i] is the mass of the displaced atom
Thus, these vectors are normalized but *not* orthogonal

                  0          1          2          3          4          5    
      0       0.000000   0.000000   0.000000   0.000000   0.000000   0.000000
      1       0.000000   0.000000   0.000000   0.000000   0.000000   0.000000
      2       0.000000   0.000000   0.000000   0.000000   0.000000   0.000000
      3       0.000000   0.000000   0.000000   0.000000   0.000000   0.000000
      4       0.000000   0.000000   0.000000   0.000000   0.000000   0.000000
      5       0.000000   0.000000   0.000000   0.000000   0.000000   0.000000
      6       0.000000   0.000000   0.000000   0.000000   0.000000   0.000000
      7       0.000000   0.000000   0.000000   0.000000   0.000000   0.000000
      8       0.000000   0.000000   0.000000   0.000000   0.000000   0.000000
                   6          7          8    
      0       0.000000  -0.000000   0.000000
      1       0.000000  -0.000000  -0.069927
      2       0.070475  -0.050163   0.000000
      3      -0.000000  -0.000000   0.000000
      4       0.429784   0.583322   0.554943
      5      -0.559287   0.398091   0.435423
      6      -0.000000   0.000000  -0.000000
      7      -0.429784  -0.583322   0.554943
      8      -0.559287   0.398091  -0.435423


-----------
IR SPECTRUM
-----------

 Mode    freq (cm**-1)   T**2         TX         TY         TZ
-------------------------------------------------------------------
   6:      1639.32   57.547410  ( -0.000000  -0.000000  -7.586001)
   7:      3806.95    3.478422  (  0.000000   0.000000   1.865053)
   8:      3903.38   24.390337  (  0.000000   4.938657  -0.000000)

The first frequency considered to be a vibration is 6
The total number of vibrations considered is 3


--------------------------
THERMOCHEMISTRY AT 298.15K
--------------------------

Temperature         ... 298.15 K
Pressure            ... 1.00 atm
Total Mass          ... 18.02 AMU

Throughout the following assumptions are being made:
  (1) The electronic state is orbitally nondegenerate
  (2) There are no thermally accessible electronically excited states
  (3) Hindered rotations indicated by low frequency modes are not
      treated as such but are treated as vibrations and this may
      cause some error
  (4) All equations used are the standard statistical mechanics
      equations for an ideal gas
  (5) All vibrations are strictly harmonic

freq.    1639.32  E(vib)   ...       0.00 
freq.    3806.95  E(vib)   ...       0.00 
freq.    3903.38  E(vib)   ...       0.00 

------------
INNER ENERGY
------------

The inner energy is: U= E(el) + E(ZPE) + E(vib) + E(rot) + E(trans)
    E(el)   - is the total energy from the electronic structure calculation
              = E(kin-el) + E(nuc-el) + E(el-el) + E(nuc-nuc)
    E(ZPE)  - the the zero temperature vibrational energy from the frequency calculation
    E(vib)  - the the finite temperature correction to E(ZPE) due to population
              of excited vibrational states
    E(rot)  - is the rotational thermal energy
    E(trans)- is the translational thermal energy

Summary of contributions to the inner energy U:
Electronic energy                ...    -76.41032739 Eh
Zero point energy                ...      0.02130007 Eh      13.37 kcal/mol
Thermal vibrational correction   ...      0.00000274 Eh       0.00 kcal/mol
Thermal rotational correction    ...      0.00141627 Eh       0.89 kcal/mol
Thermal translational correction ...      0.00141627 Eh       0.89 kcal/mol
-----------------------------------------------------------------------
Total thermal energy                    -76.38619204 Eh


Summary of corrections to the electronic energy:
(perhaps to be used in another calculation)
Total thermal correction                  0.00283528 Eh       1.78 kcal/mol
Non-thermal (ZPE) correction              0.02130007 Eh      13.37 kcal/mol
-----------------------------------------------------------------------
Total correction                          0.02413536 Eh      15.15 kcal/mol


--------
ENTHALPY
--------

The enthalpy is H = U + kB*T
                kB is Boltzmann's constant
Total free energy                 ...    -76.38619204 Eh 
Thermal Enthalpy correction       ...      0.00094421 Eh       0.59 kcal/mol
-----------------------------------------------------------------------
Total Enthalpy                    ...    -76.38524783 Eh


Note: Rotational entropy computed according to Herzberg 
Infrared and Raman Spectra, Chapter V,1, Van Nostrand Reinhold, 1945 
Point Group:  C2v, Symmetry Number:   2  
Rotational constants in cm-1:    26.687400    14.591147     9.433466 

Vibrational entropy computed according to the QRRHO of S. Grimme
Chem.Eur.J. 2012 18 9955


-------
ENTROPY
-------

The entropy contributions are T*S = T*(S(el)+S(vib)+S(rot)+S(trans))
     S(el)   - electronic entropy
     S(vib)  - vibrational entropy
     S(rot)  - rotational entropy
     S(trans)- translational entropy
The entropies will be listed as mutliplied by the temperature to get
units of energy

Electronic entropy                ...      0.00000000 Eh      0.00 kcal/mol
Vibrational entropy               ...      0.00000309 Eh      0.00 kcal/mol
Rotational entropy                ...      0.00498102 Eh      3.13 kcal/mol
Translational entropy             ...      0.01644380 Eh     10.32 kcal/mol
-----------------------------------------------------------------------
Final entropy term                ...      0.02142791 Eh     13.45 kcal/mol

In case the symmetry of your molecule has not been determined correctly
or in case you have a reason to use a different symmetry number we print 
out the resulting rotational entropy values for sn=1,12 :
 --------------------------------------------------------
|  sn= 1 | S(rot)=       0.00563548 Eh      3.54 kcal/mol|
|  sn= 2 | S(rot)=       0.00498102 Eh      3.13 kcal/mol|
|  sn= 3 | S(rot)=       0.00459819 Eh      2.89 kcal/mol|
|  sn= 4 | S(rot)=       0.00432657 Eh      2.71 kcal/mol|
|  sn= 5 | S(rot)=       0.00411588 Eh      2.58 kcal/mol|
|  sn= 6 | S(rot)=       0.00394374 Eh      2.47 kcal/mol|
|  sn= 7 | S(rot)=       0.00379819 Eh      2.38 kcal/mol|
|  sn= 8 | S(rot)=       0.00367211 Eh      2.30 kcal/mol|
|  sn= 9 | S(rot)=       0.00356090 Eh      2.23 kcal/mol|
|  sn=10 | S(rot)=       0.00346142 Eh      2.17 kcal/mol|
|  sn=11 | S(rot)=       0.00337143 Eh      2.12 kcal/mol|
|  sn=12 | S(rot)=       0.00328928 Eh      2.06 kcal/mol|
 --------------------------------------------------------


-------------------
GIBBS FREE ENERGY
-------------------

The Gibbs free energy is G = H - T*S

Total enthalpy                    ...    -76.38524783 Eh 
Total entropy correction          ...     -0.02142791 Eh    -13.45 kcal/mol
-----------------------------------------------------------------------
Final Gibbs free energy         ...    -76.40667574 Eh

For completeness - the Gibbs free energy minus the electronic energy
G-E(el)                           ...      0.00365165 Eh      2.29 kcal/mol


Timings for individual modules:

Sum of individual times         ...       13.261 sec (=   0.221 min)
GTO integral calculation        ...        1.446 sec (=   0.024 min)  10.9 %
SCF iterations                  ...        3.851 sec (=   0.064 min)  29.0 %
SCF Gradient evaluation         ...        2.349 sec (=   0.039 min)  17.7 %
Geometry relaxation             ...        1.015 sec (=   0.017 min)   7.7 %
Analytical frequency calculation...        4.599 sec (=   0.077 min)  34.7 %
                             ****ORCA TERMINATED NORMALLY****
TOTAL RUN TIME: 0 days 0 hours 0 minutes 15 seconds 969 msec
