
                                 *****************
                                 * O   R   C   A *
                                 *****************

           --- An Ab Initio, DFT and Semiempirical electronic structure package ---

                  #######################################################
                  #                        -***-                        #
                  #          Department of theory and spectroscopy      #
                  #               Directorship: Frank Neese             #
                  #        Max Planck Institute fuer Kohlenforschung    #
                  #                Kaiser Wilhelm Platz 1               #
                  #                 D-45470 Muelheim/Ruhr               #
                  #                      Germany                        #
                  #                                                     #
                  #                  All rights reserved                #
                  #                        -***-                        #
                  #######################################################


                         Program Version 4.2.1 -  RELEASE  -


 With contributions from (in alphabetic order):
   Daniel Aravena         : Magnetic Suceptibility
   Michael Atanasov       : Ab Initio Ligand Field Theory (pilot matlab implementation)
   Alexander A. Auer      : GIAO ZORA, VPT2
   Ute Becker             : Parallelization
   Giovanni Bistoni       : ED, misc. LED, open-shell LED, HFLD
   Martin Brehm           : Molecular dynamics
   Dmytro Bykov           : SCF Hessian
   Vijay G. Chilkuri      : MRCI spin determinant printing, contributions to CSF-ICE
   Dipayan Datta          : RHF DLPNO-CCSD density
   Achintya Kumar Dutta   : EOM-CC, STEOM-CC
   Dmitry Ganyushin       : Spin-Orbit,Spin-Spin,Magnetic field MRCI
   Miquel Garcia          : C-PCM Hessian, Gaussian charge scheme
   Yang Guo               : DLPNO-NEVPT2, CIM, IAO-localization
   Andreas Hansen         : Spin unrestricted coupled pair/coupled cluster methods
   Benjamin Helmich-Paris : CASSCF linear response (MC-RPA)
   Lee Huntington         : MR-EOM, pCC
   Robert Izsak           : Overlap fitted RIJCOSX, COSX-SCS-MP3, EOM
   Christian Kollmar      : KDIIS, OOCD, Brueckner-CCSD(T), CCSD density
   Simone Kossmann        : Meta GGA functionals, TD-DFT gradient, OOMP2, MP2 Hessian
   Martin Krupicka        : AUTO-CI
   Lucas Lang             : DCDCAS
   Dagmar Lenk            : GEPOL surface, SMD
   Dimitrios Liakos       : Extrapolation schemes; Compound Job, initial MDCI parallelization
   Dimitrios Manganas     : Further ROCIS development; embedding schemes
   Dimitrios Pantazis     : SARC Basis sets
   Taras Petrenko         : DFT Hessian,TD-DFT gradient, ASA, ECA, R-Raman, ABS, FL, XAS/XES, NRVS
   Peter Pinski           : DLPNO-MP2, DLPNO-MP2 Gradient
   Christoph Reimann      : Effective Core Potentials
   Marius Retegan         : Local ZFS, SOC
   Christoph Riplinger    : Optimizer, TS searches, QM/MM, DLPNO-CCSD(T), (RO)-DLPNO pert. Triples
   Tobias Risthaus        : Range-separated hybrids, TD-DFT gradient, RPA, STAB
   Michael Roemelt        : Original ROCIS implementation
   Masaaki Saitow         : Open-shell DLPNO-CCSD energy and density
   Barbara Sandhoefer     : DKH picture change effects
   Avijit Sen             : IP-ROCIS
   Kantharuban Sivalingam : CASSCF convergence, NEVPT2, FIC-MRCI
   Bernardo de Souza      : ESD, SOC TD-DFT
   Georgi Stoychev        : AutoAux, RI-MP2 NMR
   Willem Van den Heuvel  : Paramagnetic NMR
   Boris Wezisla          : Elementary symmetry handling
   Frank Wennmohs         : Technical directorship


 We gratefully acknowledge several colleagues who have allowed us to
 interface, adapt or use parts of their codes:
   Stefan Grimme, W. Hujo, H. Kruse,             : VdW corrections, initial TS optimization,
                  C. Bannwarth                     DFT functionals, gCP, sTDA/sTD-DF
   Ed Valeev, F. Pavosevic, A. Kumar             : LibInt (2-el integral package), F12 methods
   Garnet Chan, S. Sharma, J. Yang, R. Olivares  : DMRG
   Ulf Ekstrom                                   : XCFun DFT Library
   Mihaly Kallay                                 : mrcc  (arbitrary order and MRCC methods)
   Andreas Klamt, Michael Diedenhofen            : otool_cosmo (COSMO solvation model)
   Jiri Pittner, Ondrej Demel                    : Mk-CCSD
   Frank Weinhold                                : gennbo (NPA and NBO analysis)
   Christopher J. Cramer and Donald G. Truhlar   : smd solvation model
   Lars Goerigk                                  : TD-DFT with DH, B97 family of functionals
   V. Asgeirsson, H. Jonsson                     : NEB implementation
   FAccTs GmbH                                   : IRC, NEB, NEB-TS, Multilevel, MM, QM/MM, CI optimization
   S Lehtola, MJT Oliveira, MAL Marques          : LibXC Library


 Your calculation uses the libint2 library for the computation of 2-el integrals
 For citations please refer to: http://libint.valeyev.net

 Your ORCA version has been built with support for libXC version: 4.2.3
 For citations please refer to: https://tddft.org/programs/libxc/

 This ORCA versions uses:
   CBLAS   interface :  Fast vector & matrix operations
   LAPACKE interface :  Fast linear algebra routines
   SCALAPACK package :  Parallel linear algebra routines


----- Orbital basis set information -----
Your calculation utilizes the basis: 6-311++G(2d,2p)
   H, Li - Ne  : R. Krishnan, J. S. Binkley, R. Seeger and J. A. Pople, J. Chem. Phys. 72, 650 (1980).
   Na - Ar     : A. D. McLean and G. S. Chandler J. Chem. Phys. 72, 5639, (1980).
   K  - Ca     : J.-P. Blaudeau, M. P. McGrath, L. A. Curtiss and L. Radom, J. Chem. Phys. 107, 5016 (1997).
   Ga - Kr     : L. A. Curtiss, M. P. McGrath, J.-P. Blandeau, N. E. Davis, R. C. Binning and L. Radom, J. Chem. Phys. 103, 6104 (1995).
   Pol./Diff.
   H, Li - Cl  : T. Clark, J. Chandrasekhar and P. v. R. Schleyer, J. Comp. Chem. 4, 294 (1983).
   H - Ne      : M. J. Frisch, J. A. Pople and J. S. Binkley, J. Chem. Phys. 80, 3265 (1984).

================================================================================
                                        WARNINGS
                       Please study these warnings very carefully!
================================================================================


WARNING: MDCI localization with Augmented Hessian Foster-Boys
  ===> : Switching off randomization!

WARNING: Post HF methods need fully converged wavefunctions
  ===> : Setting SCFConvForced true
         You can overwrite this default with %scf ConvForced false 


INFO   : the flag for use of LIBINT has been found!

================================================================================
                                       INPUT FILE
================================================================================
NAME = orca.inp
|  1> !QCISD(T) 6-311++G(2d,2p) ENERGY
|  2> 
|  3> %paras
|  4> 	R = 0.4, 2.0, 33 # x-axis of H1
|  5> end
|  6> 
|  7> *xyz 0 1
|  8> H    0.0000000    0.0000000    0.0000000
|  9> H    {R}                0.0000000    0.0000000
| 10> **                         ****END OF INPUT****
================================================================================

                       ******************************
                       * Parameter Scan Calculation *
                       ******************************

Trajectory settings:
    -> SCF surface will be mapped
    -> MDCI surface will be mapped

There are 1 parameter(s) to be scanned
             R: range=   0.40000000 ..   2.00000000  steps=   33
There will be   33 energy evaluations


         *************************************************************
                                TRAJECTORY STEP   1
                  R  :   0.40000000
         *************************************************************
---------------------------------
CARTESIAN COORDINATES (ANGSTROEM)
---------------------------------
  H      0.000000    0.000000    0.000000
  H      0.400000    0.000000    0.000000

----------------------------
CARTESIAN COORDINATES (A.U.)
----------------------------
  NO LB      ZA    FRAG     MASS         X           Y           Z
   0 H     1.0000    0     1.008    0.000000    0.000000    0.000000
   1 H     1.0000    0     1.008    0.755890    0.000000    0.000000

--------------------------------
INTERNAL COORDINATES (ANGSTROEM)
--------------------------------
 H      0   0   0     0.000000000000     0.00000000     0.00000000
 H      1   0   0     0.400000000000     0.00000000     0.00000000

---------------------------
INTERNAL COORDINATES (A.U.)
---------------------------
 H      0   0   0     0.000000000000     0.00000000     0.00000000
 H      1   0   0     0.755890453569     0.00000000     0.00000000

---------------------
BASIS SET INFORMATION
---------------------
There are 1 groups of distinct atoms

 Group   1 Type H   : 6s2p contracted to 4s2p pattern {3111/11}

Atom   0H    basis set group =>   1
Atom   1H    basis set group =>   1
------------------------------------------------------------------------------
                           ORCA GTO INTEGRAL CALCULATION
------------------------------------------------------------------------------

                         BASIS SET STATISTICS AND STARTUP INFO

 # of primitive gaussian shells          ...   16
 # of primitive gaussian functions       ...   24
 # of contracted shells                  ...   12
 # of contracted basis functions         ...   20
 Highest angular momentum                ...    1
 Maximum contraction depth               ...    3
 Integral package used                   ... LIBINT
 Integral threshhold            Thresh   ...  1.000e-10
 Primitive cut-off              TCut     ...  1.000e-11


------------------------------ INTEGRAL EVALUATION ----------------------------


 * One electron integrals 
 Pre-screening matrix                    ... done
 Shell pair data                         ... done (   0.000 sec)

-------------------------------------------------------------------------------
                                 ORCA SCF
-------------------------------------------------------------------------------

------------
SCF SETTINGS
------------
Hamiltonian:
 Ab initio Hamiltonian  Method          .... Hartree-Fock(GTOs)


General Settings:
 Integral files         IntName         .... orca
 Hartree-Fock type      HFTyp           .... RHF
 Total Charge           Charge          ....    0
 Multiplicity           Mult            ....    1
 Number of Electrons    NEL             ....    2
 Basis Dimension        Dim             ....   20
 Nuclear Repulsion      ENuc            ....      1.3229430208 Eh

Convergence Acceleration:
 DIIS                   CNVDIIS         .... on
   Start iteration      DIISMaxIt       ....    12
   Startup error        DIISStart       ....  0.200000
   # of expansion vecs  DIISMaxEq       ....     5
   Bias factor          DIISBfac        ....   1.050
   Max. coefficient     DIISMaxC        ....  10.000
 Newton-Raphson         CNVNR           .... off
 SOSCF                  CNVSOSCF        .... on
   Start iteration      SOSCFMaxIt      ....   150
   Startup grad/error   SOSCFStart      ....  0.003300
 Level Shifting         CNVShift        .... on
   Level shift para.    LevelShift      ....    0.2500
   Turn off err/grad.   ShiftErr        ....    0.0010
 Zerner damping         CNVZerner       .... off
 Static damping         CNVDamp         .... on
   Fraction old density DampFac         ....    0.7000
   Max. Damping (<1)    DampMax         ....    0.9800
   Min. Damping (>=0)   DampMin         ....    0.0000
   Turn off err/grad.   DampErr         ....    0.1000
 Fernandez-Rico         CNVRico         .... off

SCF Procedure:
 Maximum # iterations   MaxIter         ....   125
 SCF integral mode      SCFMode         .... Direct
   Integral package                     .... LIBINT
 Reset frequency        DirectResetFreq ....    20
 Integral Threshold     Thresh          ....  1.000e-10 Eh
 Primitive CutOff       TCut            ....  1.000e-11 Eh

Convergence Tolerance:
 Convergence Check Mode ConvCheckMode   .... Total+1el-Energy
 Convergence forced     ConvForced      .... 1
 Energy Change          TolE            ....  1.000e-06 Eh
 1-El. energy change                    ....  1.000e-03 Eh
 Orbital Gradient       TolG            ....  5.000e-05
 Orbital Rotation angle TolX            ....  5.000e-05
 DIIS Error             TolErr          ....  1.000e-06


Diagonalization of the overlap matrix:
Smallest eigenvalue                        ... 1.269e-04
Time for diagonalization                   ...    0.073 sec
Threshold for overlap eigenvalues          ... 1.000e-08
Number of eigenvalues below threshold      ... 0
Time for construction of square roots      ...    0.027 sec
Total time needed                          ...    0.100 sec

-------------------
DFT GRID GENERATION
-------------------

General Integration Accuracy     IntAcc      ...  4.340
Radial Grid Type                 RadialGrid  ... Gauss-Chebyshev
Angular Grid (max. acc.)         AngularGrid ... Lebedev-110
Angular grid pruning method      GridPruning ... 3 (G Style)
Weight generation scheme         WeightScheme... Becke
Basis function cutoff            BFCut       ...    1.0000e-10
Integration weight cutoff        WCut        ...    1.0000e-14
Grids for H and He will be reduced by one unit

# of grid points (after initial pruning)     ...   1588 (   0.0 sec)
# of grid points (after weights+screening)   ...   1558 (   0.0 sec)
nearest neighbour list constructed           ...    0.0 sec
Grid point re-assignment to atoms done       ...    0.0 sec
Grid point division into batches done        ...    0.0 sec
Reduced shell lists constructed in    0.0 sec

Total number of grid points                  ...     1558
Total number of batches                      ...       26
Average number of points per batch           ...       59
Average number of grid points per atom       ...      779
Average number of shells per batch           ...    11.56 (96.30%)
Average number of basis functions per batch  ...    19.26 (96.30%)
Average number of large shells per batch     ...    11.41 (98.72%)
Average number of large basis fcns per batch ...    18.96 (98.46%)
Maximum spatial batch extension              ...  15.26, 21.59, 21.59 au
Average spatial batch extension              ...   4.39,  8.19,  8.26 au

Time for grid setup =    0.008 sec

------------------------------
INITIAL GUESS: MODEL POTENTIAL
------------------------------
Loading Hartree-Fock densities                     ... done
Calculating cut-offs                               ... done
Setting up the integral package                    ... done
Initializing the effective Hamiltonian             ... done
Starting the Coulomb interaction                   ... done (   0.0 sec)
Reading the grid                                   ... done
Mapping shells                                     ... done
Starting the XC term evaluation                    ... done (   0.0 sec)
Transforming the Hamiltonian                       ... done (   0.0 sec)
Diagonalizing the Hamiltonian                      ... done (   0.0 sec)
Back transforming the eigenvectors                 ... done (   0.0 sec)
Now organizing SCF variables                       ... done
                      ------------------
                      INITIAL GUESS DONE (   0.2 sec)
                      ------------------
--------------
SCF ITERATIONS
--------------
ITER       Energy         Delta-E        Max-DP      RMS-DP      [F,P]     Damp
               ***  Starting incremental Fock matrix formation  ***
  0     -0.9293579867   0.000000000000 0.00787927  0.00082594  0.1216147 0.7000
  1     -0.9321305493  -0.002772562566 0.00642454  0.00068798  0.0943672 0.7000
                               ***Turning on DIIS***
  2     -0.9342529003  -0.002122351045 0.01583990  0.00172586  0.0706861 0.0000
  3     -0.9416683419  -0.007415441558 0.00155522  0.00026789  0.0101643 0.0000
                      *** Initiating the SOSCF procedure ***
                           *** Shutting down DIIS ***
                      *** Re-Reading the Fockian *** 
                      *** Removing any level shift *** 
ITER      Energy       Delta-E        Grad      Rot      Max-DP    RMS-DP
  4     -0.94022544   0.0014428994  0.001334  0.001334  0.000619  0.000089
               *** Restarting incremental Fock matrix formation ***
  5     -0.93978726   0.0004381864  0.000274  0.000329  0.000217  0.000026
                 **** Energy Check signals convergence ****
              ***Rediagonalizing the Fockian in SOSCF/NRSCF***

               *****************************************************
               *                     SUCCESS                       *
               *           SCF CONVERGED AFTER   6 CYCLES          *
               *****************************************************


----------------
TOTAL SCF ENERGY
----------------

Total Energy       :           -0.93978764 Eh             -25.57292 eV

Components:
Nuclear Repulsion  :            1.32294302 Eh              35.99911 eV
Electronic Energy  :           -2.26273066 Eh             -61.57203 eV
One Electron Energy:           -3.07325383 Eh             -83.62749 eV
Two Electron Energy:            0.81052317 Eh              22.05546 eV

Virial components:
Potential Energy   :           -2.58472448 Eh             -70.33393 eV
Kinetic Energy     :            1.64493684 Eh              44.76101 eV
Virial Ratio       :            1.57132141


---------------
SCF CONVERGENCE
---------------

  Last Energy change         ...   -3.8329e-07  Tolerance :   1.0000e-06
  Last MAX-Density change    ...    7.0583e-05  Tolerance :   1.0000e-05
  Last RMS-Density change    ...    8.1627e-06  Tolerance :   1.0000e-06
  Last Orbital Gradient      ...    6.4038e-05  Tolerance :   5.0000e-05
  Last Orbital Rotation      ...    1.0582e-04  Tolerance :   5.0000e-05

             **** THE GBW FILE WAS UPDATED (orca.gbw) ****
             **** DENSITY FILE WAS UPDATED (orca.scfp) ****
             **** ENERGY FILE WAS UPDATED (orca.en.tmp) ****
             **** THE GBW FILE WAS UPDATED (orca.gbw) ****
             **** DENSITY FILE WAS UPDATED (orca.scfp) ****
----------------
ORBITAL ENERGIES
----------------

  NO   OCC          E(Eh)            E(eV) 
   0   2.0000      -0.726076       -19.7575 
   1   0.0000       0.068072         1.8523 
   2   0.0000       0.076549         2.0830 
   3   0.0000       0.282348         7.6831 
   4   0.0000       0.417073        11.3491 
   5   0.0000       0.721576        19.6351 
   6   0.0000       0.721576        19.6351 
   7   0.0000       0.798522        21.7289 
   8   0.0000       1.194031        32.4912 
   9   0.0000       1.194031        32.4912 
  10   0.0000       1.209233        32.9049 
  11   0.0000       1.700518        46.2734 
  12   0.0000       2.240183        60.9585 
  13   0.0000       3.661728        99.6407 
  14   0.0000       3.661728        99.6407 
  15   0.0000       3.684829       100.2693 
  16   0.0000       5.011644       136.3738 
  17   0.0000       5.103616       138.8765 
  18   0.0000       5.103616       138.8765 
  19   0.0000      11.218702       305.2764 

                    ********************************
                    * MULLIKEN POPULATION ANALYSIS *
                    ********************************

-----------------------
MULLIKEN ATOMIC CHARGES
-----------------------
   0 H :    0.000000
   1 H :   -0.000000
Sum of atomic charges:    0.0000000

--------------------------------
MULLIKEN REDUCED ORBITAL CHARGES
--------------------------------
  0 H s       :     0.992928  s :     0.992928
      pz      :     0.000000  p :     0.007072
      px      :     0.007072
      py      :    -0.000000
  1 H s       :     0.992928  s :     0.992928
      pz      :     0.000000  p :     0.007072
      px      :     0.007072
      py      :     0.000000


                     *******************************
                     * LOEWDIN POPULATION ANALYSIS *
                     *******************************

----------------------
LOEWDIN ATOMIC CHARGES
----------------------
   0 H :    0.000000
   1 H :    0.000000

-------------------------------
LOEWDIN REDUCED ORBITAL CHARGES
-------------------------------
  0 H s       :     0.967070  s :     0.967070
      pz      :     0.000000  p :     0.032930
      px      :     0.032930
      py      :     0.000000
  1 H s       :     0.967070  s :     0.967070
      pz      :     0.000000  p :     0.032930
      px      :     0.032930
      py      :     0.000000


                      *****************************
                      * MAYER POPULATION ANALYSIS *
                      *****************************

  NA   - Mulliken gross atomic population
  ZA   - Total nuclear charge
  QA   - Mulliken gross atomic charge
  VA   - Mayer's total valence
  BVA  - Mayer's bonded valence
  FA   - Mayer's free valence

  ATOM       NA         ZA         QA         VA         BVA        FA
  0 H      1.0000     1.0000     0.0000     1.0000     1.0000     0.0000
  1 H      1.0000     1.0000    -0.0000     1.0000     1.0000     0.0000

  Mayer bond orders larger than 0.100000
B(  0-H ,  1-H ) :   1.0000 

-------
TIMINGS
-------

Total SCF time: 0 days 0 hours 0 min 0 sec 

Total time                  ....       0.933 sec
Sum of individual times     ....       0.665 sec  ( 71.3%)

Fock matrix formation       ....       0.485 sec  ( 52.0%)
Diagonalization             ....       0.001 sec  (  0.1%)
Density matrix formation    ....       0.000 sec  (  0.0%)
Population analysis         ....       0.000 sec  (  0.0%)
Initial guess               ....       0.145 sec  ( 15.6%)
Orbital Transformation      ....       0.000 sec  (  0.0%)
Orbital Orthonormalization  ....       0.000 sec  (  0.0%)
DIIS solution               ....       0.000 sec  (  0.0%)
SOSCF solution              ....       0.025 sec  (  2.7%)


------------------------------------------------------------------------------- 
                              ORCA-MATRIX DRIVEN CI                            
------------------------------------------------------------------------------- 

--------------------------------
AUTOMATIC CHOICE OF INCORE LEVEL
--------------------------------

Memory available                           ...    256.00 MB
Memory needed for S+T                      ...      0.01 MB
Memory needed for J+K                      ...      0.02 MB
Memory needed for DIIS                     ...      0.08 MB
Memory needed for 3-ext                    ...      0.05 MB
Memory needed for 4-ext                    ...      0.52 MB
Memory needed for triples                  ...      0.26 MB
 -> Final InCoreLevel    ... 5
 -> check shows that triples correction can be computed


Wavefunction type
-----------------
Correlation treatment                      ...     QCISD     
Single excitations                         ... ON
Orbital optimization                       ... OFF
Calculation of Z vector                    ... OFF
Calculation of Brueckner orbitals          ... OFF
Perturbative triple excitations            ... ON
Calculation of F12 correction              ... OFF
Frozen core treatment                      ... chemical core (0 el)
Reference Wavefunction                     ... RHF
  Internal Orbitals:     0 ...    0 (  1 MO's/  2 electrons)
  Virtual  Orbitals:     1 ...   19 ( 19 MO's              )
Number of AO's                             ...     20
Number of electrons                        ...      2
Number of correlated electrons             ...      2

Algorithmic settings
--------------------
Integral transformation                    ... AO direct full transformation
K(C) Formation                             ... FULL-MO TRAFO
Maximum number of iterations               ...        50
Convergence tolerance (max. residuum)      ... 2.500e-05
Level shift for amplitude update           ... 2.000e-01
Maximum number of DIIS vectors             ...         7
DIIS turned on at iteration                ...         0
Damping before turning on DIIS             ...     0.500
Damping after turning on DIIS              ...     0.000
Pair specific amplitude update             ... OFF
Natural orbital iterations                 ... OFF
Perturbative natural orbital generation    ... OFF
Printlevel                                 ... 2

Memory handling:
----------------
Maximum memory for working arrays          ...    256 MB
Data storage in matrix containers          ... UNCOMPRESSED
Data type for integral storage             ... DOUBLE
In-Core Storage of quantities:
   Amplitudes+Sigma Vector      ... YES
   J+K operators                ... YES
   DIIS vectors                 ... YES
   3-external integrals         ... YES
   4-external integrals         ... YES


Initializing the integral package          ... done
Warning: reference  - re-canonicalizations have been set to INT 1 VIRT 1

--------------------------
CLOSED-SHELL FOCK OPERATOR
--------------------------

<ss|ss>:          666 b            0 skpd (  0.0%)    0.000 s ( 0.000 ms/b)
<ss|sp>:         1152 b            0 skpd (  0.0%)    0.001 s ( 0.000 ms/b)
<ss|pp>:          360 b            0 skpd (  0.0%)    0.000 s ( 0.001 ms/b)
<sp|sp>:          528 b            0 skpd (  0.0%)    0.000 s ( 0.001 ms/b)
<sp|pp>:          320 b            0 skpd (  0.0%)    0.000 s ( 0.001 ms/b)
<pp|pp>:           55 b            0 skpd (  0.0%)    0.000 s ( 0.003 ms/b)
Recanonicalizing the internal orbitals
Recanonicalizing the virtual orbitals
Time needed for Fock operator              ...            0.055 sec
Reference energy                           ...     -0.939787662

------------------------------
PARTIAL COULOMB TRANSFORMATION
------------------------------

Transformation type                        ... one-operator
Dimension of the basis                     ...   20
Number of internal MOs                     ...   20 (0-19)
Pair cutoff                                ... 0.000e+00 Eh
Number of AO pairs included in the trafo   ...  210
Total Number of distinct AO pairs          ...  210
Memory devoted for trafo                   ...  256.0 MB 
Max. Number of MO pairs treated together   ... 159783      
Max. Number of MOs treated per batch       ... 7989      
Number Format for Storage                  ... Double (8 Byte)
AO-integral source                         ... DIRECT
Integral package used                      ... LIBINT

Starting integral evaluation:
<ss|**>:         2808 b        0 skpd     0.002 s (  0.001 ms/b)
<sp|**>:         2496 b        0 skpd     0.003 s (  0.001 ms/b)
<pp|**>:          780 b        0 skpd     0.002 s (  0.002 ms/b)
Closing buffer AOJ ( 0.00 GB; CompressionRatio= 0.99)
Collecting buffer AOJ 
    ... done with AO integral generation
Number of MO pairs included in the trafo   ...  210
    ... Now sorting integrals
IBATCH = 1 of  1
Closing buffer JAO ( 0.00 GB; CompressionRatio= 0.99)
Collecting buffer JAO 
TOTAL TIME for half transformation         ...     0.011 sec
AO-integral generation                     ...     0.004 sec
Half transformation                        ...     0.003 sec
J-integral sorting                         ...     0.003 sec

-------------------------- SECOND HALF TRANSFORMATION -------------------------
Formation of (pq|rs)                       ... ok (     0.003 sec)
Integral sorting                           ... ok (     0.002 sec)

------------------
CLOSED SHELL GUESS
------------------

Initial guess performed in     0.000 sec
E(0)                                       ...     -0.939787662
E(MP2)                                     ...     -0.029522795
Initial E(tot)                             ...     -0.969310458
<T|T>                                      ...      0.006958760
Number of pairs included                   ... 1
Total number of pairs                      ... 1

---------------------------
RHF QUADRATIC CI ITERATIONS
---------------------------

Number of amplitudes to be optimized       ... 380

Iter       E(tot)           E(Corr)          Delta-E          Residual     Time
  0     -0.969310458     -0.029522795      0.000000000      0.017282177    0.00
                           *** Turning on DIIS ***
  1     -0.974141636     -0.034353974     -0.004831178      0.004826127    0.00
  2     -0.975801677     -0.036014015     -0.001660041      0.000596024    0.00
  3     -0.975887422     -0.036099760     -0.000085745      0.000122333    0.00
  4     -0.975894948     -0.036107286     -0.000007526      0.000026888    0.00
  5     -0.975895977     -0.036108315     -0.000001029      0.000006656    0.00
               --- The Quadratic CI iterations have converged ---

-------------------
QUADRATIC CI ENERGY
-------------------

E(0)                                       ...     -0.939787662
E(CORR)                                    ...     -0.036108315
E(TOT)                                     ...     -0.975895977
Singles Norm <S|S>**1/2                    ...      0.002035709  
T1 diagnostic                              ...      0.001439463  

------------------
LARGEST AMPLITUDES
------------------
   0->  6   0->  6       0.036106
   0->  5   0->  5       0.036106
   0->  4   0->  4       0.029674
   0->  7   0->  7       0.027638
   0-> 12   0-> 12       0.024121
   0->  4   0-> 12       0.021129
   0-> 12   0->  4       0.021129
   0->  3   0->  7       0.018894
   0->  7   0->  3       0.018894
   0->  7   0-> 11       0.017380
   0-> 11   0->  7       0.017380
   0->  6   0-> 13       0.014700
   0-> 13   0->  6       0.014700
   0->  5   0-> 14       0.014700
   0-> 14   0->  5       0.014700
   0-> 13   0-> 13       0.014592


        !!!!!!!!!!!!!!!!!!!!!!!!!!!!!!!!!!!!!!!!!!!!!!!!!!!!!!!!!!!!!!!!!!!!!!!!!! 
        !  Warning: Densities are linearized densities !                         !
        !!!!!!!!!!!!!!!!!!!!!!!!!!!!!!!!!!!!!!!!!!!!!!!!!!!!!!!!!!!!!!!!!!!!!!!!!! 

Trace of internal density part =     -0.022280528
Trace of external density part =      0.022280528
----------------------
RHF TRIPLES CORRECTION (Algorithm 1)
----------------------

Multiplier for the singles contribution    ...      2.000000000

Triples Correction (T)                     ...      0.000000000
Scaling of triples based on CCSD energies (Peterson et al. Molecular Physics 113, 1551 (2015))
E(T*) = f*E(T) where f = E(F12-CCSD)/E(CCSD) 
f = CCSD (with F12)/ CCSD (without F12)    ...      1.000000000
Scaled triples correction (T)              ...      0.000000000

Final correlation energy                   ...     -0.036108315
E(QCISD)                                   ...     -0.975895977
E(QCISD(T))                                ...     -0.975895977

NORM  =      1.011144408 sqrt=     1.005556765
W(HF) =      0.988978421
------------------------------------------------------------------------------
                           ORCA POPULATION ANALYSIS
------------------------------------------------------------------------------
Input electron density              ... orca.mdcip
BaseName (.gbw .S,...)              ... orca

                    ********************************
                    * MULLIKEN POPULATION ANALYSIS *
                    ********************************

-----------------------
MULLIKEN ATOMIC CHARGES
-----------------------
   0 H :    0.000000
   1 H :   -0.000000
Sum of atomic charges:    0.0000000

--------------------------------
MULLIKEN REDUCED ORBITAL CHARGES
--------------------------------
  0 H s       :     0.987301  s :     0.987301
      pz      :     0.002010  p :     0.012699
      px      :     0.008679
      py      :     0.002010
  1 H s       :     0.987301  s :     0.987301
      pz      :     0.002010  p :     0.012699
      px      :     0.008679
      py      :     0.002010


                     *******************************
                     * LOEWDIN POPULATION ANALYSIS *
                     *******************************

----------------------
LOEWDIN ATOMIC CHARGES
----------------------
   0 H :    0.000000
   1 H :    0.000000

-------------------------------
LOEWDIN REDUCED ORBITAL CHARGES
-------------------------------
  0 H s       :     0.960443  s :     0.960443
      pz      :     0.002010  p :     0.039557
      px      :     0.035537
      py      :     0.002010
  1 H s       :     0.960443  s :     0.960443
      pz      :     0.002010  p :     0.039557
      px      :     0.035537
      py      :     0.002010


                      *****************************
                      * MAYER POPULATION ANALYSIS *
                      *****************************

  NA   - Mulliken gross atomic population
  ZA   - Total nuclear charge
  QA   - Mulliken gross atomic charge
  VA   - Mayer's total valence
  BVA  - Mayer's bonded valence
  FA   - Mayer's free valence

  ATOM       NA         ZA         QA         VA         BVA        FA
  0 H      1.0000     1.0000     0.0000     1.0215     0.9773     0.0442
  1 H      1.0000     1.0000    -0.0000     1.0215     0.9773     0.0442

  Mayer bond orders larger than 0.100000
B(  0-H ,  1-H ) :   0.9773 



------------------------------------------------------------------------------- 
                                     TIMINGS                                   
------------------------------------------------------------------------------- 


Total execution time                   ...        1.079 sec

Fock Matrix Formation                  ...        0.055 sec (  5.1%)
Initial Guess                          ...        0.000 sec (  0.0%)
DIIS Solver                            ...        0.000 sec (  0.0%)
State Vector Update                    ...        0.000 sec (  0.0%)
Sigma-vector construction              ...        0.005 sec (  0.5%)
  <D|H|D>(4-ext)                       ...        0.003 sec ( 52.5% of sigma)
Total Time for computing (T)           ...        0.000 sec (  0.0% of ALL)


-------------------------   --------------------
FINAL SINGLE POINT ENERGY        -0.975895976882
-------------------------   --------------------

Storing actual gbw-file in orca.001.gbw ... done

                            ***************************************
                            *     ORCA property calculations      *
                            ***************************************

                                    ---------------------
                                    Active property flags
                                    ---------------------
   (+) Dipole Moment


------------------------------------------------------------------------------
                       ORCA ELECTRIC PROPERTIES CALCULATION
------------------------------------------------------------------------------

Dipole Moment Calculation                       ... on
Quadrupole Moment Calculation                   ... off
Polarizability Calculation                      ... off
GBWName                                         ... orca.gbw
Electron density file                           ... orca.scfp
The origin for moment calculation is the CENTER OF MASS  = ( 0.377945,  0.000000  0.000000)

-------------
DIPOLE MOMENT
-------------
                                X             Y             Z
Electronic contribution:      0.00000       0.00000      -0.00000
Nuclear contribution   :      0.00000       0.00000       0.00000
                        -----------------------------------------
Total Dipole Moment    :      0.00000       0.00000      -0.00000
                        -----------------------------------------
Magnitude (a.u.)       :      0.00000
Magnitude (Debye)      :      0.00000



--------------------
Rotational spectrum 
--------------------
 
Rotational constants in cm-1:     0.000000   209.048176   209.048176 
Rotational constants in MHz :     0.000000 6267106.642963 6267106.642963 

 Dipole components along the rotational axes: 
x,y,z [a.u.] :     0.000000     0.000000    -0.000000 
x,y,z [Debye]:     0.000000     0.000000    -0.000000 

 

                           *** MDCI DENSITY ***

------------------------------------------------------------------------------
                       ORCA ELECTRIC PROPERTIES CALCULATION
------------------------------------------------------------------------------

Dipole Moment Calculation                       ... on
Quadrupole Moment Calculation                   ... off
Polarizability Calculation                      ... off
GBWName                                         ... orca.gbw
Electron density file                           ... orca.mdcip
The origin for moment calculation is the CENTER OF MASS  = ( 0.377945,  0.000000  0.000000)

-------------
DIPOLE MOMENT
-------------
                                X             Y             Z
Electronic contribution:     -0.00000       0.00000       0.00000
Nuclear contribution   :      0.00000       0.00000       0.00000
                        -----------------------------------------
Total Dipole Moment    :     -0.00000       0.00000       0.00000
                        -----------------------------------------
Magnitude (a.u.)       :      0.00000
Magnitude (Debye)      :      0.00000



--------------------
Rotational spectrum 
--------------------
 
Rotational constants in cm-1:     0.000000   209.048176   209.048176 
Rotational constants in MHz :     0.000000 6267106.642963 6267106.642963 

 Dipole components along the rotational axes: 
x,y,z [a.u.] :    -0.000000     0.000000     0.000000 
x,y,z [Debye]:    -0.000000     0.000000     0.000000 

 

         *************************************************************
                                TRAJECTORY STEP   2
                  R  :   0.45000000
         *************************************************************
---------------------------------
CARTESIAN COORDINATES (ANGSTROEM)
---------------------------------
  H      0.000000    0.000000    0.000000
  H      0.450000    0.000000    0.000000

----------------------------
CARTESIAN COORDINATES (A.U.)
----------------------------
  NO LB      ZA    FRAG     MASS         X           Y           Z
   0 H     1.0000    0     1.008    0.000000    0.000000    0.000000
   1 H     1.0000    0     1.008    0.850377    0.000000    0.000000

--------------------------------
INTERNAL COORDINATES (ANGSTROEM)
--------------------------------
 H      0   0   0     0.000000000000     0.00000000     0.00000000
 H      1   0   0     0.450000000000     0.00000000     0.00000000

---------------------------
INTERNAL COORDINATES (A.U.)
---------------------------
 H      0   0   0     0.000000000000     0.00000000     0.00000000
 H      1   0   0     0.850376760265     0.00000000     0.00000000


Diagonalization of the overlap matrix:
Smallest eigenvalue                        ... 1.812e-04
Time for diagonalization                   ...    0.001 sec
Threshold for overlap eigenvalues          ... 1.000e-08
Number of eigenvalues below threshold      ... 0
Time for construction of square roots      ...    0.000 sec
Total time needed                          ...    0.001 sec

--------------
SCF ITERATIONS
--------------
ITER       Energy         Delta-E        Max-DP      RMS-DP      [F,P]     Damp
               ***  Starting incremental Fock matrix formation  ***
  0     -1.0131334895   0.000000000000 0.00277340  0.00029751  0.0374002 0.7000
                      *** Initiating the SOSCF procedure ***
                      *** Re-Reading the Fockian *** 
                      *** Removing any level shift *** 
ITER      Energy       Delta-E        Grad      Rot      Max-DP    RMS-DP
  1     -1.01341398  -0.0002804943  0.003105  0.003105  0.007531  0.000807
               *** Restarting incremental Fock matrix formation ***
  2     -1.01416479  -0.0007508080  0.002301  0.001656  0.000884  0.000141
  3     -1.01417832  -0.0000135280  0.000324  0.000350  0.000240  0.000037
                 **** Energy Check signals convergence ****
              ***Rediagonalizing the Fockian in SOSCF/NRSCF***

               *****************************************************
               *                     SUCCESS                       *
               *           SCF CONVERGED AFTER   4 CYCLES          *
               *****************************************************

Total Energy       :           -1.01417872 Eh             -27.59721 eV
  Last Energy change         ...   -3.9595e-07  Tolerance :   1.0000e-06
  Last MAX-Density change    ...    3.1554e-05  Tolerance :   1.0000e-05
             **** THE GBW FILE WAS UPDATED (orca.gbw) ****
             **** DENSITY FILE WAS UPDATED (orca.scfp) ****
             **** ENERGY FILE WAS UPDATED (orca.en.tmp) ****
             **** THE GBW FILE WAS UPDATED (orca.gbw) ****
             **** DENSITY FILE WAS UPDATED (orca.scfp) ****
Total SCF time: 0 days 0 hours 0 min 0 sec 


------------------------------------------------------------------------------- 
                              ORCA-MATRIX DRIVEN CI                            
------------------------------------------------------------------------------- 

--------------------------------
AUTOMATIC CHOICE OF INCORE LEVEL
--------------------------------

Memory available                           ...    256.00 MB
Memory needed for S+T                      ...      0.01 MB
Memory needed for J+K                      ...      0.02 MB
Memory needed for DIIS                     ...      0.08 MB
Memory needed for 3-ext                    ...      0.05 MB
Memory needed for 4-ext                    ...      0.52 MB
Memory needed for triples                  ...      0.26 MB
 -> Final InCoreLevel    ... 5
 -> check shows that triples correction can be computed


Wavefunction type
-----------------
Correlation treatment                      ...     QCISD     
Single excitations                         ... ON
Orbital optimization                       ... OFF
Calculation of Z vector                    ... OFF
Calculation of Brueckner orbitals          ... OFF
Perturbative triple excitations            ... ON
Calculation of F12 correction              ... OFF
Frozen core treatment                      ... chemical core (0 el)
Reference Wavefunction                     ... RHF
  Internal Orbitals:     0 ...    0 (  1 MO's/  2 electrons)
  Virtual  Orbitals:     1 ...   19 ( 19 MO's              )
Number of AO's                             ...     20
Number of electrons                        ...      2
Number of correlated electrons             ...      2

Algorithmic settings
--------------------
Integral transformation                    ... AO direct full transformation
K(C) Formation                             ... FULL-MO TRAFO
Maximum number of iterations               ...        50
Convergence tolerance (max. residuum)      ... 2.500e-05
Level shift for amplitude update           ... 2.000e-01
Maximum number of DIIS vectors             ...         7
DIIS turned on at iteration                ...         0
Damping before turning on DIIS             ...     0.500
Damping after turning on DIIS              ...     0.000
Pair specific amplitude update             ... OFF
Natural orbital iterations                 ... OFF
Perturbative natural orbital generation    ... OFF
Printlevel                                 ... 2

Memory handling:
----------------
Maximum memory for working arrays          ...    256 MB
Data storage in matrix containers          ... UNCOMPRESSED
Data type for integral storage             ... DOUBLE
In-Core Storage of quantities:
   Amplitudes+Sigma Vector      ... YES
   J+K operators                ... YES
   DIIS vectors                 ... YES
   3-external integrals         ... YES
   4-external integrals         ... YES


Initializing the integral package          ... done
Warning: reference  - re-canonicalizations have been set to INT 1 VIRT 1

--------------------------
CLOSED-SHELL FOCK OPERATOR
--------------------------

<ss|ss>:          666 b            0 skpd (  0.0%)    0.000 s ( 0.000 ms/b)
<ss|sp>:         1152 b            0 skpd (  0.0%)    0.001 s ( 0.000 ms/b)
<ss|pp>:          360 b            0 skpd (  0.0%)    0.000 s ( 0.001 ms/b)
<sp|sp>:          528 b            0 skpd (  0.0%)    0.000 s ( 0.001 ms/b)
<sp|pp>:          320 b            0 skpd (  0.0%)    0.000 s ( 0.001 ms/b)
<pp|pp>:           55 b            0 skpd (  0.0%)    0.000 s ( 0.003 ms/b)
Recanonicalizing the internal orbitals
Recanonicalizing the virtual orbitals
Time needed for Fock operator              ...            0.002 sec
Reference energy                           ...     -1.014178719

------------------------------
PARTIAL COULOMB TRANSFORMATION
------------------------------

Transformation type                        ... one-operator
Dimension of the basis                     ...   20
Number of internal MOs                     ...   20 (0-19)
Pair cutoff                                ... 0.000e+00 Eh
Number of AO pairs included in the trafo   ...  210
Total Number of distinct AO pairs          ...  210
Memory devoted for trafo                   ...  256.0 MB 
Max. Number of MO pairs treated together   ... 159783      
Max. Number of MOs treated per batch       ... 7989      
Number Format for Storage                  ... Double (8 Byte)
AO-integral source                         ... DIRECT
Integral package used                      ... LIBINT

Starting integral evaluation:
<ss|**>:         2808 b        0 skpd     0.001 s (  0.000 ms/b)
<sp|**>:         2496 b        0 skpd     0.002 s (  0.001 ms/b)
<pp|**>:          780 b        0 skpd     0.001 s (  0.001 ms/b)
Closing buffer AOJ ( 0.00 GB; CompressionRatio= 0.99)
Collecting buffer AOJ 
    ... done with AO integral generation
Number of MO pairs included in the trafo   ...  210
    ... Now sorting integrals
IBATCH = 1 of  1
Closing buffer JAO ( 0.00 GB; CompressionRatio= 0.99)
Collecting buffer JAO 
TOTAL TIME for half transformation         ...     0.006 sec
AO-integral generation                     ...     0.002 sec
Half transformation                        ...     0.002 sec
J-integral sorting                         ...     0.001 sec

-------------------------- SECOND HALF TRANSFORMATION -------------------------
Formation of (pq|rs)                       ... ok (     0.002 sec)
Integral sorting                           ... ok (     0.001 sec)

------------------
CLOSED SHELL GUESS
------------------

Initial guess performed in     0.000 sec
E(0)                                       ...     -1.014178719
E(MP2)                                     ...     -0.029482234
Initial E(tot)                             ...     -1.043660952
<T|T>                                      ...      0.007283490
Number of pairs included                   ... 1
Total number of pairs                      ... 1

---------------------------
RHF QUADRATIC CI ITERATIONS
---------------------------

Number of amplitudes to be optimized       ... 380

Iter       E(tot)           E(Corr)          Delta-E          Residual     Time
  0     -1.043660952     -0.029482234      0.000000000      0.017958043    0.00
                           *** Turning on DIIS ***
  1     -1.048507387     -0.034328668     -0.004846435      0.005698486    0.00
  2     -1.050240693     -0.036061974     -0.001733306      0.000745631    0.00
  3     -1.050334724     -0.036156006     -0.000094031      0.000155642    0.00
  4     -1.050343148     -0.036164429     -0.000008424      0.000026087    0.00
  5     -1.050344186     -0.036165467     -0.000001038      0.000005278    0.00
               --- The Quadratic CI iterations have converged ---

-------------------
QUADRATIC CI ENERGY
-------------------

E(0)                                       ...     -1.014178719
E(CORR)                                    ...     -0.036165467
E(TOT)                                     ...     -1.050344186
Singles Norm <S|S>**1/2                    ...      0.002551064  
T1 diagnostic                              ...      0.001803875  

------------------
LARGEST AMPLITUDES
------------------
   0->  6   0->  6       0.037637
   0->  5   0->  5       0.037637
   0->  7   0->  7       0.031829
   0->  4   0->  4       0.030430
   0-> 12   0-> 12       0.022787
   0->  3   0->  7       0.022160
   0->  7   0->  3       0.022160
   0->  4   0-> 12       0.020509
   0-> 12   0->  4       0.020509
   0->  3   0->  3       0.017055
   0->  7   0-> 11       0.015681
   0-> 11   0->  7       0.015681
   0->  1   0->  4       0.014030
   0->  4   0->  1       0.014030
   0-> 15   0-> 15       0.013762
   0-> 14   0-> 14       0.013762


        !!!!!!!!!!!!!!!!!!!!!!!!!!!!!!!!!!!!!!!!!!!!!!!!!!!!!!!!!!!!!!!!!!!!!!!!!! 
        !  Warning: Densities are linearized densities !                         !
        !!!!!!!!!!!!!!!!!!!!!!!!!!!!!!!!!!!!!!!!!!!!!!!!!!!!!!!!!!!!!!!!!!!!!!!!!! 

Trace of internal density part =     -0.023596730
Trace of external density part =      0.023596730
----------------------
RHF TRIPLES CORRECTION (Algorithm 1)
----------------------

Multiplier for the singles contribution    ...      2.000000000

Triples Correction (T)                     ...      0.000000000
Scaling of triples based on CCSD energies (Peterson et al. Molecular Physics 113, 1551 (2015))
E(T*) = f*E(T) where f = E(F12-CCSD)/E(CCSD) 
f = CCSD (with F12)/ CCSD (without F12)    ...      1.000000000
Scaled triples correction (T)              ...      0.000000000

Final correlation energy                   ...     -0.036165467
E(QCISD)                                   ...     -1.050344186
E(QCISD(T))                                ...     -1.050344186

NORM  =      1.011804873 sqrt=     1.005885119
W(HF) =      0.988332856
------------------------------------------------------------------------------
                           ORCA POPULATION ANALYSIS
------------------------------------------------------------------------------
Input electron density              ... orca.mdcip
BaseName (.gbw .S,...)              ... orca


------------------------------------------------------------------------------- 
                                     TIMINGS                                   
------------------------------------------------------------------------------- 


Total execution time                   ...        0.131 sec

Fock Matrix Formation                  ...        0.002 sec (  1.8%)
Initial Guess                          ...        0.000 sec (  0.0%)
DIIS Solver                            ...        0.000 sec (  0.2%)
State Vector Update                    ...        0.000 sec (  0.0%)
Sigma-vector construction              ...        0.003 sec (  2.2%)
  <D|H|D>(4-ext)                       ...        0.001 sec ( 52.2% of sigma)
Total Time for computing (T)           ...        0.000 sec (  0.0% of ALL)


-------------------------   --------------------
FINAL SINGLE POINT ENERGY        -1.050344186015
-------------------------   --------------------

Storing actual gbw-file in orca.002.gbw ... done

                            ***************************************
                            *     ORCA property calculations      *
                            ***************************************

                                    ---------------------
                                    Active property flags
                                    ---------------------
   (+) Dipole Moment


------------------------------------------------------------------------------
                       ORCA ELECTRIC PROPERTIES CALCULATION
------------------------------------------------------------------------------

Dipole Moment Calculation                       ... on
Quadrupole Moment Calculation                   ... off
Polarizability Calculation                      ... off
GBWName                                         ... orca.gbw
Electron density file                           ... orca.scfp
The origin for moment calculation is the CENTER OF MASS  = ( 0.425188,  0.000000  0.000000)

-------------
DIPOLE MOMENT
-------------
                                X             Y             Z
Electronic contribution:     -0.00000       0.00000      -0.00000
Nuclear contribution   :      0.00000       0.00000       0.00000
                        -----------------------------------------
Total Dipole Moment    :     -0.00000       0.00000      -0.00000
                        -----------------------------------------
Magnitude (a.u.)       :      0.00000
Magnitude (Debye)      :      0.00000



--------------------
Rotational spectrum 
--------------------
 
Rotational constants in cm-1:     0.000000   165.173867   165.173867 
Rotational constants in MHz :     0.000000 4951787.964811 4951787.964811 

 Dipole components along the rotational axes: 
x,y,z [a.u.] :    -0.000000     0.000000    -0.000000 
x,y,z [Debye]:    -0.000000     0.000000    -0.000000 

 

                           *** MDCI DENSITY ***

------------------------------------------------------------------------------
                       ORCA ELECTRIC PROPERTIES CALCULATION
------------------------------------------------------------------------------

Dipole Moment Calculation                       ... on
Quadrupole Moment Calculation                   ... off
Polarizability Calculation                      ... off
GBWName                                         ... orca.gbw
Electron density file                           ... orca.mdcip
The origin for moment calculation is the CENTER OF MASS  = ( 0.425188,  0.000000  0.000000)

-------------
DIPOLE MOMENT
-------------
                                X             Y             Z
Electronic contribution:     -0.00000      -0.00000       0.00000
Nuclear contribution   :      0.00000       0.00000       0.00000
                        -----------------------------------------
Total Dipole Moment    :     -0.00000      -0.00000       0.00000
                        -----------------------------------------
Magnitude (a.u.)       :      0.00000
Magnitude (Debye)      :      0.00000



--------------------
Rotational spectrum 
--------------------
 
Rotational constants in cm-1:     0.000000   165.173867   165.173867 
Rotational constants in MHz :     0.000000 4951787.964811 4951787.964811 

 Dipole components along the rotational axes: 
x,y,z [a.u.] :    -0.000000    -0.000000     0.000000 
x,y,z [Debye]:    -0.000000    -0.000000     0.000000 

 

         *************************************************************
                                TRAJECTORY STEP   3
                  R  :   0.50000000
         *************************************************************
---------------------------------
CARTESIAN COORDINATES (ANGSTROEM)
---------------------------------
  H      0.000000    0.000000    0.000000
  H      0.500000    0.000000    0.000000

----------------------------
CARTESIAN COORDINATES (A.U.)
----------------------------
  NO LB      ZA    FRAG     MASS         X           Y           Z
   0 H     1.0000    0     1.008    0.000000    0.000000    0.000000
   1 H     1.0000    0     1.008    0.944863    0.000000    0.000000

--------------------------------
INTERNAL COORDINATES (ANGSTROEM)
--------------------------------
 H      0   0   0     0.000000000000     0.00000000     0.00000000
 H      1   0   0     0.500000000000     0.00000000     0.00000000

---------------------------
INTERNAL COORDINATES (A.U.)
---------------------------
 H      0   0   0     0.000000000000     0.00000000     0.00000000
 H      1   0   0     0.944863066961     0.00000000     0.00000000


Diagonalization of the overlap matrix:
Smallest eigenvalue                        ... 2.846e-04
Time for diagonalization                   ...    0.000 sec
Threshold for overlap eigenvalues          ... 1.000e-08
Number of eigenvalues below threshold      ... 0
Time for construction of square roots      ...    0.000 sec
Total time needed                          ...    0.000 sec

--------------
SCF ITERATIONS
--------------
ITER       Energy         Delta-E        Max-DP      RMS-DP      [F,P]     Damp
               ***  Starting incremental Fock matrix formation  ***
  0     -1.0625451503   0.000000000000 0.00249013  0.00027007  0.0344037 0.7000
                      *** Initiating the SOSCF procedure ***
                      *** Re-Reading the Fockian *** 
                      *** Removing any level shift *** 
ITER      Energy       Delta-E        Grad      Rot      Max-DP    RMS-DP
  1     -1.06278511  -0.0002399561  0.002804  0.002804  0.006755  0.000737
               *** Restarting incremental Fock matrix formation ***
  2     -1.06343135  -0.0006462471  0.002076  0.001664  0.000796  0.000139
  3     -1.06344430  -0.0000129470  0.000327  0.000362  0.000269  0.000038
                 **** Energy Check signals convergence ****
              ***Rediagonalizing the Fockian in SOSCF/NRSCF***

               *****************************************************
               *                     SUCCESS                       *
               *           SCF CONVERGED AFTER   4 CYCLES          *
               *****************************************************

Total Energy       :           -1.06344471 Eh             -28.93780 eV
  Last Energy change         ...   -4.1374e-07  Tolerance :   1.0000e-06
  Last MAX-Density change    ...    3.0970e-05  Tolerance :   1.0000e-05
             **** THE GBW FILE WAS UPDATED (orca.gbw) ****
             **** DENSITY FILE WAS UPDATED (orca.scfp) ****
             **** ENERGY FILE WAS UPDATED (orca.en.tmp) ****
             **** THE GBW FILE WAS UPDATED (orca.gbw) ****
             **** DENSITY FILE WAS UPDATED (orca.scfp) ****
Total SCF time: 0 days 0 hours 0 min 0 sec 


------------------------------------------------------------------------------- 
                              ORCA-MATRIX DRIVEN CI                            
------------------------------------------------------------------------------- 

--------------------------------
AUTOMATIC CHOICE OF INCORE LEVEL
--------------------------------

Memory available                           ...    256.00 MB
Memory needed for S+T                      ...      0.01 MB
Memory needed for J+K                      ...      0.02 MB
Memory needed for DIIS                     ...      0.08 MB
Memory needed for 3-ext                    ...      0.05 MB
Memory needed for 4-ext                    ...      0.52 MB
Memory needed for triples                  ...      0.26 MB
 -> Final InCoreLevel    ... 5
 -> check shows that triples correction can be computed


Wavefunction type
-----------------
Correlation treatment                      ...     QCISD     
Single excitations                         ... ON
Orbital optimization                       ... OFF
Calculation of Z vector                    ... OFF
Calculation of Brueckner orbitals          ... OFF
Perturbative triple excitations            ... ON
Calculation of F12 correction              ... OFF
Frozen core treatment                      ... chemical core (0 el)
Reference Wavefunction                     ... RHF
  Internal Orbitals:     0 ...    0 (  1 MO's/  2 electrons)
  Virtual  Orbitals:     1 ...   19 ( 19 MO's              )
Number of AO's                             ...     20
Number of electrons                        ...      2
Number of correlated electrons             ...      2

Algorithmic settings
--------------------
Integral transformation                    ... AO direct full transformation
K(C) Formation                             ... FULL-MO TRAFO
Maximum number of iterations               ...        50
Convergence tolerance (max. residuum)      ... 2.500e-05
Level shift for amplitude update           ... 2.000e-01
Maximum number of DIIS vectors             ...         7
DIIS turned on at iteration                ...         0
Damping before turning on DIIS             ...     0.500
Damping after turning on DIIS              ...     0.000
Pair specific amplitude update             ... OFF
Natural orbital iterations                 ... OFF
Perturbative natural orbital generation    ... OFF
Printlevel                                 ... 2

Memory handling:
----------------
Maximum memory for working arrays          ...    256 MB
Data storage in matrix containers          ... UNCOMPRESSED
Data type for integral storage             ... DOUBLE
In-Core Storage of quantities:
   Amplitudes+Sigma Vector      ... YES
   J+K operators                ... YES
   DIIS vectors                 ... YES
   3-external integrals         ... YES
   4-external integrals         ... YES


Initializing the integral package          ... done
Warning: reference  - re-canonicalizations have been set to INT 1 VIRT 1

--------------------------
CLOSED-SHELL FOCK OPERATOR
--------------------------

<ss|ss>:          666 b            0 skpd (  0.0%)    0.000 s ( 0.000 ms/b)
<ss|sp>:         1152 b            0 skpd (  0.0%)    0.000 s ( 0.000 ms/b)
<ss|pp>:          360 b            0 skpd (  0.0%)    0.000 s ( 0.000 ms/b)
<sp|sp>:          528 b            0 skpd (  0.0%)    0.000 s ( 0.000 ms/b)
<sp|pp>:          320 b            0 skpd (  0.0%)    0.000 s ( 0.001 ms/b)
<pp|pp>:           55 b            0 skpd (  0.0%)    0.000 s ( 0.002 ms/b)
Recanonicalizing the internal orbitals
Recanonicalizing the virtual orbitals
Time needed for Fock operator              ...            0.002 sec
Reference energy                           ...     -1.063444717

------------------------------
PARTIAL COULOMB TRANSFORMATION
------------------------------

Transformation type                        ... one-operator
Dimension of the basis                     ...   20
Number of internal MOs                     ...   20 (0-19)
Pair cutoff                                ... 0.000e+00 Eh
Number of AO pairs included in the trafo   ...  210
Total Number of distinct AO pairs          ...  210
Memory devoted for trafo                   ...  256.0 MB 
Max. Number of MO pairs treated together   ... 159783      
Max. Number of MOs treated per batch       ... 7989      
Number Format for Storage                  ... Double (8 Byte)
AO-integral source                         ... DIRECT
Integral package used                      ... LIBINT

Starting integral evaluation:
<ss|**>:         2808 b        0 skpd     0.001 s (  0.000 ms/b)
<sp|**>:         2496 b        0 skpd     0.001 s (  0.001 ms/b)
<pp|**>:          780 b        0 skpd     0.001 s (  0.001 ms/b)
Closing buffer AOJ ( 0.00 GB; CompressionRatio= 0.99)
Collecting buffer AOJ 
    ... done with AO integral generation
Number of MO pairs included in the trafo   ...  210
    ... Now sorting integrals
IBATCH = 1 of  1
Closing buffer JAO ( 0.00 GB; CompressionRatio= 0.99)
Collecting buffer JAO 
TOTAL TIME for half transformation         ...     0.004 sec
AO-integral generation                     ...     0.002 sec
Half transformation                        ...     0.001 sec
J-integral sorting                         ...     0.001 sec

-------------------------- SECOND HALF TRANSFORMATION -------------------------
Formation of (pq|rs)                       ... ok (     0.001 sec)
Integral sorting                           ... ok (     0.001 sec)

------------------
CLOSED SHELL GUESS
------------------

Initial guess performed in     0.000 sec
E(0)                                       ...     -1.063444717
E(MP2)                                     ...     -0.029458473
Initial E(tot)                             ...     -1.092903190
<T|T>                                      ...      0.007639439
Number of pairs included                   ... 1
Total number of pairs                      ... 1

---------------------------
RHF QUADRATIC CI ITERATIONS
---------------------------

Number of amplitudes to be optimized       ... 380

Iter       E(tot)           E(Corr)          Delta-E          Residual     Time
  0     -1.092903190     -0.029458473      0.000000000      0.019319044    0.00
                           *** Turning on DIIS ***
  1     -1.097776883     -0.034332166     -0.004873693      0.006777983    0.00
  2     -1.099600032     -0.036155315     -0.001823150      0.000909817    0.00
  3     -1.099705237     -0.036260520     -0.000105205      0.000194224    0.00
  4     -1.099715239     -0.036270522     -0.000010001      0.000033535    0.00
  5     -1.099716379     -0.036271662     -0.000001141      0.000004576    0.00
               --- The Quadratic CI iterations have converged ---

-------------------
QUADRATIC CI ENERGY
-------------------

E(0)                                       ...     -1.063444717
E(CORR)                                    ...     -0.036271662
E(TOT)                                     ...     -1.099716379
Singles Norm <S|S>**1/2                    ...      0.003171750  
T1 diagnostic                              ...      0.002242766  

------------------
LARGEST AMPLITUDES
------------------
   0->  6   0->  6       0.039027
   0->  5   0->  5       0.039027
   0->  7   0->  7       0.036374
   0->  4   0->  4       0.031117
   0->  7   0->  3       0.025846
   0->  3   0->  7       0.025846
   0-> 12   0-> 12       0.021425
   0->  3   0->  3       0.020514
   0->  4   0-> 12       0.019815
   0-> 12   0->  4       0.019815
   0->  7   0-> 13       0.015676
   0-> 13   0->  7       0.015676
   0->  4   0->  1       0.014541
   0->  1   0->  4       0.014541
   0->  6   0-> 15       0.013685
   0-> 15   0->  6       0.013685


        !!!!!!!!!!!!!!!!!!!!!!!!!!!!!!!!!!!!!!!!!!!!!!!!!!!!!!!!!!!!!!!!!!!!!!!!!! 
        !  Warning: Densities are linearized densities !                         !
        !!!!!!!!!!!!!!!!!!!!!!!!!!!!!!!!!!!!!!!!!!!!!!!!!!!!!!!!!!!!!!!!!!!!!!!!!! 

Trace of internal density part =     -0.025108575
Trace of external density part =      0.025108575
----------------------
RHF TRIPLES CORRECTION (Algorithm 1)
----------------------

Multiplier for the singles contribution    ...      2.000000000

Triples Correction (T)                     ...      0.000000000
Scaling of triples based on CCSD energies (Peterson et al. Molecular Physics 113, 1551 (2015))
E(T*) = f*E(T) where f = E(F12-CCSD)/E(CCSD) 
f = CCSD (with F12)/ CCSD (without F12)    ...      1.000000000
Scaled triples correction (T)              ...      0.000000000

Final correlation energy                   ...     -0.036271662
E(QCISD)                                   ...     -1.099716379
E(QCISD(T))                                ...     -1.099716379

NORM  =      1.012564347 sqrt=     1.006262564
W(HF) =      0.987591557
------------------------------------------------------------------------------
                           ORCA POPULATION ANALYSIS
------------------------------------------------------------------------------
Input electron density              ... orca.mdcip
BaseName (.gbw .S,...)              ... orca


------------------------------------------------------------------------------- 
                                     TIMINGS                                   
------------------------------------------------------------------------------- 


Total execution time                   ...        0.120 sec

Fock Matrix Formation                  ...        0.002 sec (  1.6%)
Initial Guess                          ...        0.000 sec (  0.0%)
DIIS Solver                            ...        0.000 sec (  0.1%)
State Vector Update                    ...        0.000 sec (  0.0%)
Sigma-vector construction              ...        0.002 sec (  1.9%)
  <D|H|D>(4-ext)                       ...        0.001 sec ( 52.5% of sigma)
Total Time for computing (T)           ...        0.000 sec (  0.0% of ALL)


-------------------------   --------------------
FINAL SINGLE POINT ENERGY        -1.099716379406
-------------------------   --------------------

Storing actual gbw-file in orca.003.gbw ... done

                            ***************************************
                            *     ORCA property calculations      *
                            ***************************************

                                    ---------------------
                                    Active property flags
                                    ---------------------
   (+) Dipole Moment


------------------------------------------------------------------------------
                       ORCA ELECTRIC PROPERTIES CALCULATION
------------------------------------------------------------------------------

Dipole Moment Calculation                       ... on
Quadrupole Moment Calculation                   ... off
Polarizability Calculation                      ... off
GBWName                                         ... orca.gbw
Electron density file                           ... orca.scfp
The origin for moment calculation is the CENTER OF MASS  = ( 0.472432,  0.000000  0.000000)

-------------
DIPOLE MOMENT
-------------
                                X             Y             Z
Electronic contribution:      0.00000       0.00000       0.00000
Nuclear contribution   :      0.00000       0.00000       0.00000
                        -----------------------------------------
Total Dipole Moment    :      0.00000       0.00000       0.00000
                        -----------------------------------------
Magnitude (a.u.)       :      0.00000
Magnitude (Debye)      :      0.00000



--------------------
Rotational spectrum 
--------------------
 
Rotational constants in cm-1:     0.000000   133.790832   133.790832 
Rotational constants in MHz :     0.000000 4010948.251497 4010948.251497 

 Dipole components along the rotational axes: 
x,y,z [a.u.] :     0.000000     0.000000     0.000000 
x,y,z [Debye]:     0.000000     0.000000     0.000000 

 

                           *** MDCI DENSITY ***

------------------------------------------------------------------------------
                       ORCA ELECTRIC PROPERTIES CALCULATION
------------------------------------------------------------------------------

Dipole Moment Calculation                       ... on
Quadrupole Moment Calculation                   ... off
Polarizability Calculation                      ... off
GBWName                                         ... orca.gbw
Electron density file                           ... orca.mdcip
The origin for moment calculation is the CENTER OF MASS  = ( 0.472432,  0.000000  0.000000)

-------------
DIPOLE MOMENT
-------------
                                X             Y             Z
Electronic contribution:     -0.00000      -0.00000      -0.00000
Nuclear contribution   :      0.00000       0.00000       0.00000
                        -----------------------------------------
Total Dipole Moment    :     -0.00000      -0.00000      -0.00000
                        -----------------------------------------
Magnitude (a.u.)       :      0.00000
Magnitude (Debye)      :      0.00000



--------------------
Rotational spectrum 
--------------------
 
Rotational constants in cm-1:     0.000000   133.790832   133.790832 
Rotational constants in MHz :     0.000000 4010948.251497 4010948.251497 

 Dipole components along the rotational axes: 
x,y,z [a.u.] :    -0.000000    -0.000000    -0.000000 
x,y,z [Debye]:    -0.000000    -0.000000    -0.000000 

 

         *************************************************************
                                TRAJECTORY STEP   4
                  R  :   0.55000000
         *************************************************************
---------------------------------
CARTESIAN COORDINATES (ANGSTROEM)
---------------------------------
  H      0.000000    0.000000    0.000000
  H      0.550000    0.000000    0.000000

----------------------------
CARTESIAN COORDINATES (A.U.)
----------------------------
  NO LB      ZA    FRAG     MASS         X           Y           Z
   0 H     1.0000    0     1.008    0.000000    0.000000    0.000000
   1 H     1.0000    0     1.008    1.039349    0.000000    0.000000

--------------------------------
INTERNAL COORDINATES (ANGSTROEM)
--------------------------------
 H      0   0   0     0.000000000000     0.00000000     0.00000000
 H      1   0   0     0.550000000000     0.00000000     0.00000000

---------------------------
INTERNAL COORDINATES (A.U.)
---------------------------
 H      0   0   0     0.000000000000     0.00000000     0.00000000
 H      1   0   0     1.039349373657     0.00000000     0.00000000


Diagonalization of the overlap matrix:
Smallest eigenvalue                        ... 4.721e-04
Time for diagonalization                   ...    0.000 sec
Threshold for overlap eigenvalues          ... 1.000e-08
Number of eigenvalues below threshold      ... 0
Time for construction of square roots      ...    0.000 sec
Total time needed                          ...    0.000 sec

--------------
SCF ITERATIONS
--------------
ITER       Energy         Delta-E        Max-DP      RMS-DP      [F,P]     Damp
               ***  Starting incremental Fock matrix formation  ***
  0     -1.0947206341   0.000000000000 0.00223527  0.00024678  0.0315928 0.7000
                      *** Initiating the SOSCF procedure ***
                      *** Re-Reading the Fockian *** 
                      *** Removing any level shift *** 
ITER      Energy       Delta-E        Grad      Rot      Max-DP    RMS-DP
  1     -1.09492657  -0.0002059338  0.002533  0.002533  0.006060  0.000679
               *** Restarting incremental Fock matrix formation ***
  2     -1.09548463  -0.0005580578  0.001879  0.001656  0.000718  0.000139
  3     -1.09549698  -0.0000123497  0.000327  0.000369  0.000294  0.000039
                 **** Energy Check signals convergence ****
              ***Rediagonalizing the Fockian in SOSCF/NRSCF***

               *****************************************************
               *                     SUCCESS                       *
               *           SCF CONVERGED AFTER   4 CYCLES          *
               *****************************************************

Total Energy       :           -1.09549740 Eh             -29.81000 eV
  Last Energy change         ...   -4.2556e-07  Tolerance :   1.0000e-06
  Last MAX-Density change    ...    2.9800e-05  Tolerance :   1.0000e-05
             **** THE GBW FILE WAS UPDATED (orca.gbw) ****
             **** DENSITY FILE WAS UPDATED (orca.scfp) ****
             **** ENERGY FILE WAS UPDATED (orca.en.tmp) ****
             **** THE GBW FILE WAS UPDATED (orca.gbw) ****
             **** DENSITY FILE WAS UPDATED (orca.scfp) ****
Total SCF time: 0 days 0 hours 0 min 0 sec 


------------------------------------------------------------------------------- 
                              ORCA-MATRIX DRIVEN CI                            
------------------------------------------------------------------------------- 

--------------------------------
AUTOMATIC CHOICE OF INCORE LEVEL
--------------------------------

Memory available                           ...    256.00 MB
Memory needed for S+T                      ...      0.01 MB
Memory needed for J+K                      ...      0.02 MB
Memory needed for DIIS                     ...      0.08 MB
Memory needed for 3-ext                    ...      0.05 MB
Memory needed for 4-ext                    ...      0.52 MB
Memory needed for triples                  ...      0.26 MB
 -> Final InCoreLevel    ... 5
 -> check shows that triples correction can be computed


Wavefunction type
-----------------
Correlation treatment                      ...     QCISD     
Single excitations                         ... ON
Orbital optimization                       ... OFF
Calculation of Z vector                    ... OFF
Calculation of Brueckner orbitals          ... OFF
Perturbative triple excitations            ... ON
Calculation of F12 correction              ... OFF
Frozen core treatment                      ... chemical core (0 el)
Reference Wavefunction                     ... RHF
  Internal Orbitals:     0 ...    0 (  1 MO's/  2 electrons)
  Virtual  Orbitals:     1 ...   19 ( 19 MO's              )
Number of AO's                             ...     20
Number of electrons                        ...      2
Number of correlated electrons             ...      2

Algorithmic settings
--------------------
Integral transformation                    ... AO direct full transformation
K(C) Formation                             ... FULL-MO TRAFO
Maximum number of iterations               ...        50
Convergence tolerance (max. residuum)      ... 2.500e-05
Level shift for amplitude update           ... 2.000e-01
Maximum number of DIIS vectors             ...         7
DIIS turned on at iteration                ...         0
Damping before turning on DIIS             ...     0.500
Damping after turning on DIIS              ...     0.000
Pair specific amplitude update             ... OFF
Natural orbital iterations                 ... OFF
Perturbative natural orbital generation    ... OFF
Printlevel                                 ... 2

Memory handling:
----------------
Maximum memory for working arrays          ...    256 MB
Data storage in matrix containers          ... UNCOMPRESSED
Data type for integral storage             ... DOUBLE
In-Core Storage of quantities:
   Amplitudes+Sigma Vector      ... YES
   J+K operators                ... YES
   DIIS vectors                 ... YES
   3-external integrals         ... YES
   4-external integrals         ... YES


Initializing the integral package          ... done
Warning: reference  - re-canonicalizations have been set to INT 1 VIRT 1

--------------------------
CLOSED-SHELL FOCK OPERATOR
--------------------------

<ss|ss>:          666 b            0 skpd (  0.0%)    0.000 s ( 0.000 ms/b)
<ss|sp>:         1152 b            0 skpd (  0.0%)    0.000 s ( 0.000 ms/b)
<ss|pp>:          360 b            0 skpd (  0.0%)    0.000 s ( 0.000 ms/b)
<sp|sp>:          528 b            0 skpd (  0.0%)    0.000 s ( 0.000 ms/b)
<sp|pp>:          320 b            0 skpd (  0.0%)    0.000 s ( 0.001 ms/b)
<pp|pp>:           55 b            0 skpd (  0.0%)    0.000 s ( 0.002 ms/b)
Recanonicalizing the internal orbitals
Recanonicalizing the virtual orbitals
Time needed for Fock operator              ...            0.002 sec
Reference energy                           ...     -1.095497404

------------------------------
PARTIAL COULOMB TRANSFORMATION
------------------------------

Transformation type                        ... one-operator
Dimension of the basis                     ...   20
Number of internal MOs                     ...   20 (0-19)
Pair cutoff                                ... 0.000e+00 Eh
Number of AO pairs included in the trafo   ...  210
Total Number of distinct AO pairs          ...  210
Memory devoted for trafo                   ...  256.0 MB 
Max. Number of MO pairs treated together   ... 159783      
Max. Number of MOs treated per batch       ... 7989      
Number Format for Storage                  ... Double (8 Byte)
AO-integral source                         ... DIRECT
Integral package used                      ... LIBINT

Starting integral evaluation:
<ss|**>:         2808 b        0 skpd     0.001 s (  0.000 ms/b)
<sp|**>:         2496 b        0 skpd     0.001 s (  0.001 ms/b)
<pp|**>:          780 b        0 skpd     0.001 s (  0.001 ms/b)
Closing buffer AOJ ( 0.00 GB; CompressionRatio= 0.99)
Collecting buffer AOJ 
    ... done with AO integral generation
Number of MO pairs included in the trafo   ...  210
    ... Now sorting integrals
IBATCH = 1 of  1
[...]
Time needed for Fock operator              ...            0.002 sec
Reference energy                           ...     -0.925503378

------------------------------
PARTIAL COULOMB TRANSFORMATION
------------------------------

Transformation type                        ... one-operator
Dimension of the basis                     ...   20
Number of internal MOs                     ...   20 (0-19)
Pair cutoff                                ... 0.000e+00 Eh
Number of AO pairs included in the trafo   ...  210
Total Number of distinct AO pairs          ...  210
Memory devoted for trafo                   ...  256.0 MB 
Max. Number of MO pairs treated together   ... 159783      
Max. Number of MOs treated per batch       ... 7989      
Number Format for Storage                  ... Double (8 Byte)
AO-integral source                         ... DIRECT
Integral package used                      ... LIBINT

Starting integral evaluation:
<ss|**>:         2808 b        0 skpd     0.001 s (  0.000 ms/b)
<sp|**>:         2496 b        0 skpd     0.001 s (  0.001 ms/b)
<pp|**>:          780 b        0 skpd     0.001 s (  0.001 ms/b)
Closing buffer AOJ ( 0.00 GB; CompressionRatio= 0.99)
Collecting buffer AOJ 
    ... done with AO integral generation
Number of MO pairs included in the trafo   ...  210
    ... Now sorting integrals
IBATCH = 1 of  1
Closing buffer JAO ( 0.00 GB; CompressionRatio= 0.99)
Collecting buffer JAO 
TOTAL TIME for half transformation         ...     0.004 sec
AO-integral generation                     ...     0.002 sec
Half transformation                        ...     0.001 sec
J-integral sorting                         ...     0.001 sec

-------------------------- SECOND HALF TRANSFORMATION -------------------------
Formation of (pq|rs)                       ... ok (     0.001 sec)
Integral sorting                           ... ok (     0.001 sec)

------------------
CLOSED SHELL GUESS
------------------

Initial guess performed in     0.000 sec
E(0)                                       ...     -0.925503378
E(MP2)                                     ...     -0.050763527
Initial E(tot)                             ...     -0.976266905
<T|T>                                      ...      0.054698654
Number of pairs included                   ... 1
Total number of pairs                      ... 1

---------------------------
RHF QUADRATIC CI ITERATIONS
---------------------------

Number of amplitudes to be optimized       ... 380

Iter       E(tot)           E(Corr)          Delta-E          Residual     Time
  0     -0.976266905     -0.050763527      0.000000000      0.069432731    0.00
                           *** Turning on DIIS ***
  1     -0.989687142     -0.064183764     -0.013420237      0.051471984    0.00
  2     -1.005348151     -0.079844773     -0.015661009      0.026956133    0.00
  3     -1.019716054     -0.094212675     -0.014367902      0.002386843    0.00
  4     -1.020105026     -0.094601648     -0.000388972      0.000617363    0.00
  5     -1.020250368     -0.094746990     -0.000145342      0.000066198    0.00
  6     -1.020286165     -0.094782786     -0.000035796      0.000016130    0.00
               --- The Quadratic CI iterations have converged ---

-------------------
QUADRATIC CI ENERGY
-------------------

E(0)                                       ...     -0.925503378
E(CORR)                                    ...     -0.094782786
E(TOT)                                     ...     -1.020286165
Singles Norm <S|S>**1/2                    ...      0.087247889  
T1 diagnostic                              ...      0.061693574  

------------------
LARGEST AMPLITUDES
------------------
   0->  1   0->  1       0.452154
   0->  3   0->  1       0.145437
   0->  1   0->  3       0.145437
   0->  4   0->  1       0.091411
   0->  1   0->  4       0.091411
   0->  5  -1-> -1       0.053181
   0->  2  -1-> -1       0.050494
   0->  3   0->  3       0.047361
   0->  6  -1-> -1       0.045820
   0->  3   0->  4       0.030759
   0->  4   0->  3       0.030759
   0->  4   0->  4       0.022464
   0->  7   0->  7       0.020881
   0->  8   0->  8       0.020881
   0->  6   0->  6       0.020089
   0->  1   0-> 11       0.013975


        !!!!!!!!!!!!!!!!!!!!!!!!!!!!!!!!!!!!!!!!!!!!!!!!!!!!!!!!!!!!!!!!!!!!!!!!!! 
        !  Warning: Densities are linearized densities !                         !
        !!!!!!!!!!!!!!!!!!!!!!!!!!!!!!!!!!!!!!!!!!!!!!!!!!!!!!!!!!!!!!!!!!!!!!!!!! 

Trace of internal density part =     -0.557019058
Trace of external density part =      0.557019058
----------------------
RHF TRIPLES CORRECTION (Algorithm 1)
----------------------

Multiplier for the singles contribution    ...      2.000000000

Triples Correction (T)                     ...      0.000000000
Scaling of triples based on CCSD energies (Peterson et al. Molecular Physics 113, 1551 (2015))
E(T*) = f*E(T) where f = E(F12-CCSD)/E(CCSD) 
f = CCSD (with F12)/ CCSD (without F12)    ...      1.000000000
Scaled triples correction (T)              ...      0.000000000

Final correlation energy                   ...     -0.094782786
E(QCISD)                                   ...     -1.020286165
E(QCISD(T))                                ...     -1.020286165

NORM  =      1.286121723 sqrt=     1.134073068
W(HF) =      0.777531381
------------------------------------------------------------------------------
                           ORCA POPULATION ANALYSIS
------------------------------------------------------------------------------
Input electron density              ... orca.mdcip
BaseName (.gbw .S,...)              ... orca


------------------------------------------------------------------------------- 
                                     TIMINGS                                   
------------------------------------------------------------------------------- 


Total execution time                   ...        0.195 sec

Fock Matrix Formation                  ...        0.002 sec (  1.0%)
Initial Guess                          ...        0.000 sec (  0.0%)
DIIS Solver                            ...        0.000 sec (  0.1%)
State Vector Update                    ...        0.000 sec (  0.0%)
Sigma-vector construction              ...        0.003 sec (  1.4%)
  <D|H|D>(4-ext)                       ...        0.001 sec ( 52.8% of sigma)
Total Time for computing (T)           ...        0.000 sec (  0.0% of ALL)


-------------------------   --------------------
FINAL SINGLE POINT ENERGY        -1.020286164559
-------------------------   --------------------

Storing actual gbw-file in orca.033.gbw ... done

                            ***************************************
                            *     ORCA property calculations      *
                            ***************************************

                                    ---------------------
                                    Active property flags
                                    ---------------------
   (+) Dipole Moment


------------------------------------------------------------------------------
                       ORCA ELECTRIC PROPERTIES CALCULATION
------------------------------------------------------------------------------

Dipole Moment Calculation                       ... on
Quadrupole Moment Calculation                   ... off
Polarizability Calculation                      ... off
GBWName                                         ... orca.gbw
Electron density file                           ... orca.scfp
The origin for moment calculation is the CENTER OF MASS  = ( 1.889726,  0.000000  0.000000)

-------------
DIPOLE MOMENT
-------------
                                X             Y             Z
Electronic contribution:     -0.00000      -0.00000      -0.00000
Nuclear contribution   :      0.00000       0.00000       0.00000
                        -----------------------------------------
Total Dipole Moment    :     -0.00000      -0.00000      -0.00000
                        -----------------------------------------
Magnitude (a.u.)       :      0.00000
Magnitude (Debye)      :      0.00000



--------------------
Rotational spectrum 
--------------------
 
Rotational constants in cm-1:     0.000000     8.361927     8.361927 
Rotational constants in MHz :     0.000000 250684.265719 250684.265719 

 Dipole components along the rotational axes: 
x,y,z [a.u.] :    -0.000000    -0.000000    -0.000000 
x,y,z [Debye]:    -0.000000    -0.000000    -0.000000 

 

                           *** MDCI DENSITY ***

------------------------------------------------------------------------------
                       ORCA ELECTRIC PROPERTIES CALCULATION
------------------------------------------------------------------------------

Dipole Moment Calculation                       ... on
Quadrupole Moment Calculation                   ... off
Polarizability Calculation                      ... off
GBWName                                         ... orca.gbw
Electron density file                           ... orca.mdcip
The origin for moment calculation is the CENTER OF MASS  = ( 1.889726,  0.000000  0.000000)

-------------
DIPOLE MOMENT
-------------
                                X             Y             Z
Electronic contribution:      0.00000       0.00000       0.00000
Nuclear contribution   :      0.00000       0.00000       0.00000
                        -----------------------------------------
Total Dipole Moment    :      0.00000       0.00000       0.00000
                        -----------------------------------------
Magnitude (a.u.)       :      0.00000
Magnitude (Debye)      :      0.00000



--------------------
Rotational spectrum 
--------------------
 
Rotational constants in cm-1:     0.000000     8.361927     8.361927 
Rotational constants in MHz :     0.000000 250684.265719 250684.265719 

 Dipole components along the rotational axes: 
x,y,z [a.u.] :     0.000000     0.000000     0.000000 
x,y,z [Debye]:     0.000000     0.000000     0.000000 

 
                              **** TRAJECTORY DONE ***

                         SUMMARY OF THE CALCULATED SURFACE

------------------
TRAJECTORY RESULTS
------------------

Column   1: R

The Calculated Surface using the 'Actual Energy'
   0.40000000  -0.97589598
   0.45000000  -1.05034419
   0.50000000  -1.09971638
   0.55000000  -1.13194318
   0.60000000  -1.15218812
   0.65000000  -1.16392966
   0.70000000  -1.16957471
   0.75000000  -1.17082371
   0.80000000  -1.16889854
   0.85000000  -1.16469058
   0.90000000  -1.15885937
   0.95000000  -1.15189962
   1.00000000  -1.14418696
   1.05000000  -1.13600925
   1.10000000  -1.12758797
   1.15000000  -1.11909681
   1.20000000  -1.11065929
   1.25000000  -1.10237689
   1.30000000  -1.09432434
   1.35000000  -1.08655821
   1.40000000  -1.07912127
   1.45000000  -1.07204543
   1.50000000  -1.06535373
   1.55000000  -1.05906175
   1.60000000  -1.05317853
   1.65000000  -1.04770732
   1.70000000  -1.04264626
   1.75000000  -1.03798889
   1.80000000  -1.03372482
   1.85000000  -1.02984024
   1.90000000  -1.02631850
   1.95000000  -1.02314069
   2.00000000  -1.02028616

                        *******************************
                        *   FIT OF THE ACT-ENERGY PES *
                        *******************************
-------------------------------
POTENTIAL ENERGY SURFACE =   0
-------------------------------

Minimum found after 16 iterations
Equilibrium distance and its energy from the interpolated PES:
  Re      =   0.74208 Angstroem  (  1.40232 Bohr)
  E(Re)   =    -1.170864 Eh 
  dE/dR   = 2.590e-10 (1.369e-02 CHEB)
  d2E/dR2 =    0.370885 (   0.402330 CHEB) (   0.483505 NUM)
  d3E/dR3 =   -1.399911 (  28.180915 CHEB)

Spectroscopic constants:
  we =    4427.3 cm**-1 (based on SPLINE)
  we =    4611.2 cm**-1 (based on CHEB)
  we =    5055.0 cm**-1 (based on NUM)

Performing Morse fit ...
Morse-Fit Results:
 Te(adiabatic)   = 3054485.5 cm**-1         =378.708 eV
 d2E/dR**2 (Morse)=  -5984.769030641 
 d3E/dR**3 (Morse)= 263960.584335559 
 d4E/dR**4 (Morse)= -9054955.041935904 
 E0               =     12.746395624 Eh  RMS=5.01e-02
 Re               =   0.20566 Angstroem      =  0.38864 Bohr RMS=7.91e-04)
 De(Morse)        = -376.72735 eV             =-3038511.3 cm**-1 RMS=5.01e-02
 D0(Morse)        =      -nan eV
 beta             =  14.70180 au          RMS=3.94e-02
 we               =     -nan cm**-1
 wexe             =  26009.0 cm**-1
 Displacement   =   -0.5364 Angstroem      = -1.01368 Bohr

The Calculated Surface using the SCF energy
   0.40000000  -0.93978764
   0.45000000  -1.01417872
   0.50000000  -1.06344471
   0.55000000  -1.09549740
   0.60000000  -1.11549097
   0.65000000  -1.12689825
   0.70000000  -1.13212046
   0.75000000  -1.13285175
   0.80000000  -1.13030778
   0.85000000  -1.12537423
   0.90000000  -1.11870533
   0.95000000  -1.11079037
   1.00000000  -1.10199902
   1.05000000  -1.09261260
   1.10000000  -1.08284586
   1.15000000  -1.07286257
   1.20000000  -1.06278723
   1.25000000  -1.05271414
   1.30000000  -1.04271468
   1.35000000  -1.03284286
   1.40000000  -1.02313948
   1.45000000  -1.01363523
   1.50000000  -1.00435285
   1.55000000  -0.99530879
   1.60000000  -0.98651448
   1.65000000  -0.97797730
   1.70000000  -0.96970141
   1.75000000  -0.96168841
   1.80000000  -0.95393788
   1.85000000  -0.94644780
   1.90000000  -0.93921494
   1.95000000  -0.93223511
   2.00000000  -0.92550338

                        *******************************
                        *       FIT OF THE SCF PES    *
                        *******************************
-------------------------------
POTENTIAL ENERGY SURFACE =   0
-------------------------------

Minimum found after 17 iterations
Equilibrium distance and its energy from the interpolated PES:
  Re      =   0.73421 Angstroem  (  1.38746 Bohr)
  E(Re)   =    -1.133025 Eh 
  dE/dR   = 2.391e-09 (1.323e-02 CHEB)
  d2E/dR2 =    0.402809 (   0.438108 CHEB) (   0.517880 NUM)
  d3E/dR3 =   -1.392432 (  29.723712 CHEB)

Spectroscopic constants:
  we =    4613.9 cm**-1 (based on SPLINE)
  we =    4811.8 cm**-1 (based on CHEB)
  we =    5231.6 cm**-1 (based on NUM)

Performing Morse fit ...
Morse-Fit Results:
 Te(adiabatic)   = 5190412.0 cm**-1         =643.529 eV
 d2E/dR**2 (Morse)= -18463.037050114 
 d3E/dR**3 (Morse)= 1096443.051447496 
 d4E/dR**4 (Morse)= -50643597.515229084 
 E0               =     22.516232416 Eh  RMS=9.30e-02
 Re               =   0.23645 Angstroem      =  0.44683 Bohr RMS=7.65e-04)
 De(Morse)        = -641.06254 eV             =-5170518.6 cm**-1 RMS=9.29e-02
 D0(Morse)        =      -nan eV
 beta             =  19.79528 au          RMS=6.03e-02
 we               =     -nan cm**-1
 wexe             =  47152.7 cm**-1
 Displacement   =   -0.4978 Angstroem      = -0.94062 Bohr

The Calculated Surface using the MDCI energy
   0.40000000  -0.97589598
   0.45000000  -1.05034419
   0.50000000  -1.09971638
   0.55000000  -1.13194318
   0.60000000  -1.15218812
   0.65000000  -1.16392966
   0.70000000  -1.16957471
   0.75000000  -1.17082371
   0.80000000  -1.16889854
   0.85000000  -1.16469058
   0.90000000  -1.15885937
   0.95000000  -1.15189962
   1.00000000  -1.14418696
   1.05000000  -1.13600925
   1.10000000  -1.12758797
   1.15000000  -1.11909681
   1.20000000  -1.11065929
   1.25000000  -1.10237689
   1.30000000  -1.09432434
   1.35000000  -1.08655821
   1.40000000  -1.07912127
   1.45000000  -1.07204543
   1.50000000  -1.06535373
   1.55000000  -1.05906175
   1.60000000  -1.05317853
   1.65000000  -1.04770732
   1.70000000  -1.04264626
   1.75000000  -1.03798889
   1.80000000  -1.03372482
   1.85000000  -1.02984024
   1.90000000  -1.02631850
   1.95000000  -1.02314069
   2.00000000  -1.02028616

                        *******************************
                        *      FIT OF THE MDCI PES    *
                        *******************************
-------------------------------
POTENTIAL ENERGY SURFACE =   0
-------------------------------

Minimum found after 16 iterations
Equilibrium distance and its energy from the interpolated PES:
  Re      =   0.74208 Angstroem  (  1.40232 Bohr)
  E(Re)   =    -1.170864 Eh 
  dE/dR   = 2.590e-10 (1.369e-02 CHEB)
  d2E/dR2 =    0.370885 (   0.402330 CHEB) (   0.483505 NUM)
  d3E/dR3 =   -1.399911 (  28.180915 CHEB)

Spectroscopic constants:
  we =    4427.3 cm**-1 (based on SPLINE)
  we =    4611.2 cm**-1 (based on CHEB)
  we =    5055.0 cm**-1 (based on NUM)

Performing Morse fit ...
Morse-Fit Results:
 Te(adiabatic)   = 3054485.5 cm**-1         =378.708 eV
 d2E/dR**2 (Morse)=  -5984.769030641 
 d3E/dR**3 (Morse)= 263960.584335559 
 d4E/dR**4 (Morse)= -9054955.041935904 
 E0               =     12.746395624 Eh  RMS=5.01e-02
 Re               =   0.20566 Angstroem      =  0.38864 Bohr RMS=7.91e-04)
 De(Morse)        = -376.72735 eV             =-3038511.3 cm**-1 RMS=5.01e-02
 D0(Morse)        =      -nan eV
 beta             =  14.70180 au          RMS=3.94e-02
 we               =     -nan cm**-1
 wexe             =  26009.0 cm**-1
 Displacement   =   -0.5364 Angstroem      = -1.01368 Bohr

The Calculated Surface using the MDCI energy minus triple correction
   0.40000000  -0.97589598
   0.45000000  -1.05034419
   0.50000000  -1.09971638
   0.55000000  -1.13194318
   0.60000000  -1.15218812
   0.65000000  -1.16392966
   0.70000000  -1.16957471
   0.75000000  -1.17082371
   0.80000000  -1.16889854
   0.85000000  -1.16469058
   0.90000000  -1.15885937
   0.95000000  -1.15189962
   1.00000000  -1.14418696
   1.05000000  -1.13600925
   1.10000000  -1.12758797
   1.15000000  -1.11909681
   1.20000000  -1.11065929
   1.25000000  -1.10237689
   1.30000000  -1.09432434
   1.35000000  -1.08655821
   1.40000000  -1.07912127
   1.45000000  -1.07204543
   1.50000000  -1.06535373
   1.55000000  -1.05906175
   1.60000000  -1.05317853
   1.65000000  -1.04770732
   1.70000000  -1.04264626
   1.75000000  -1.03798889
   1.80000000  -1.03372482
   1.85000000  -1.02984024
   1.90000000  -1.02631850
   1.95000000  -1.02314069
   2.00000000  -1.02028616

                        *******************************
                        *      FIT OF THE MDCI1 PES   *
                        *******************************
-------------------------------
POTENTIAL ENERGY SURFACE =   0
-------------------------------

Minimum found after 16 iterations
Equilibrium distance and its energy from the interpolated PES:
  Re      =   0.74208 Angstroem  (  1.40232 Bohr)
  E(Re)   =    -1.170864 Eh 
  dE/dR   = 2.590e-10 (1.369e-02 CHEB)
  d2E/dR2 =    0.370885 (   0.402330 CHEB) (   0.483505 NUM)
  d3E/dR3 =   -1.399911 (  28.180915 CHEB)

Spectroscopic constants:
  we =    4427.3 cm**-1 (based on SPLINE)
  we =    4611.2 cm**-1 (based on CHEB)
  we =    5055.0 cm**-1 (based on NUM)

Performing Morse fit ...
Morse-Fit Results:
 Te(adiabatic)   = 3054485.5 cm**-1         =378.708 eV
 d2E/dR**2 (Morse)=  -5984.769030641 
 d3E/dR**3 (Morse)= 263960.584335559 
 d4E/dR**4 (Morse)= -9054955.041935904 
 E0               =     12.746395624 Eh  RMS=5.01e-02
 Re               =   0.20566 Angstroem      =  0.38864 Bohr RMS=7.91e-04)
 De(Morse)        = -376.72735 eV             =-3038511.3 cm**-1 RMS=5.01e-02
 D0(Morse)        =      -nan eV
 beta             =  14.70180 au          RMS=3.94e-02
 we               =     -nan cm**-1
 wexe             =  26009.0 cm**-1
 Displacement   =   -0.5364 Angstroem      = -1.01368 Bohr


Timings for individual modules:

Sum of individual times         ...       43.043 sec (=   0.717 min)
GTO integral calculation        ...       11.430 sec (=   0.191 min)  26.6 %
SCF iterations                  ...       19.513 sec (=   0.325 min)  45.3 %
MDCI module                     ...       12.100 sec (=   0.202 min)  28.1 %
                             ****ORCA TERMINATED NORMALLY****
TOTAL RUN TIME: 0 days 0 hours 0 minutes 53 seconds 461 msec
