
                                 *****************
                                 * O   R   C   A *
                                 *****************

           --- An Ab Initio, DFT and Semiempirical electronic structure package ---

                  #######################################################
                  #                        -***-                        #
                  #          Department of theory and spectroscopy      #
                  #               Directorship: Frank Neese             #
                  #        Max Planck Institute fuer Kohlenforschung    #
                  #                Kaiser Wilhelm Platz 1               #
                  #                 D-45470 Muelheim/Ruhr               #
                  #                      Germany                        #
                  #                                                     #
                  #                  All rights reserved                #
                  #                        -***-                        #
                  #######################################################


                         Program Version 4.2.1 -  RELEASE  -


 With contributions from (in alphabetic order):
   Daniel Aravena         : Magnetic Suceptibility
   Michael Atanasov       : Ab Initio Ligand Field Theory (pilot matlab implementation)
   Alexander A. Auer      : GIAO ZORA, VPT2
   Ute Becker             : Parallelization
   Giovanni Bistoni       : ED, misc. LED, open-shell LED, HFLD
   Martin Brehm           : Molecular dynamics
   Dmytro Bykov           : SCF Hessian
   Vijay G. Chilkuri      : MRCI spin determinant printing, contributions to CSF-ICE
   Dipayan Datta          : RHF DLPNO-CCSD density
   Achintya Kumar Dutta   : EOM-CC, STEOM-CC
   Dmitry Ganyushin       : Spin-Orbit,Spin-Spin,Magnetic field MRCI
   Miquel Garcia          : C-PCM Hessian, Gaussian charge scheme
   Yang Guo               : DLPNO-NEVPT2, CIM, IAO-localization
   Andreas Hansen         : Spin unrestricted coupled pair/coupled cluster methods
   Benjamin Helmich-Paris : CASSCF linear response (MC-RPA)
   Lee Huntington         : MR-EOM, pCC
   Robert Izsak           : Overlap fitted RIJCOSX, COSX-SCS-MP3, EOM
   Christian Kollmar      : KDIIS, OOCD, Brueckner-CCSD(T), CCSD density
   Simone Kossmann        : Meta GGA functionals, TD-DFT gradient, OOMP2, MP2 Hessian
   Martin Krupicka        : AUTO-CI
   Lucas Lang             : DCDCAS
   Dagmar Lenk            : GEPOL surface, SMD
   Dimitrios Liakos       : Extrapolation schemes; Compound Job, initial MDCI parallelization
   Dimitrios Manganas     : Further ROCIS development; embedding schemes
   Dimitrios Pantazis     : SARC Basis sets
   Taras Petrenko         : DFT Hessian,TD-DFT gradient, ASA, ECA, R-Raman, ABS, FL, XAS/XES, NRVS
   Peter Pinski           : DLPNO-MP2, DLPNO-MP2 Gradient
   Christoph Reimann      : Effective Core Potentials
   Marius Retegan         : Local ZFS, SOC
   Christoph Riplinger    : Optimizer, TS searches, QM/MM, DLPNO-CCSD(T), (RO)-DLPNO pert. Triples
   Tobias Risthaus        : Range-separated hybrids, TD-DFT gradient, RPA, STAB
   Michael Roemelt        : Original ROCIS implementation
   Masaaki Saitow         : Open-shell DLPNO-CCSD energy and density
   Barbara Sandhoefer     : DKH picture change effects
   Avijit Sen             : IP-ROCIS
   Kantharuban Sivalingam : CASSCF convergence, NEVPT2, FIC-MRCI
   Bernardo de Souza      : ESD, SOC TD-DFT
   Georgi Stoychev        : AutoAux, RI-MP2 NMR
   Willem Van den Heuvel  : Paramagnetic NMR
   Boris Wezisla          : Elementary symmetry handling
   Frank Wennmohs         : Technical directorship


 We gratefully acknowledge several colleagues who have allowed us to
 interface, adapt or use parts of their codes:
   Stefan Grimme, W. Hujo, H. Kruse,             : VdW corrections, initial TS optimization,
                  C. Bannwarth                     DFT functionals, gCP, sTDA/sTD-DF
   Ed Valeev, F. Pavosevic, A. Kumar             : LibInt (2-el integral package), F12 methods
   Garnet Chan, S. Sharma, J. Yang, R. Olivares  : DMRG
   Ulf Ekstrom                                   : XCFun DFT Library
   Mihaly Kallay                                 : mrcc  (arbitrary order and MRCC methods)
   Andreas Klamt, Michael Diedenhofen            : otool_cosmo (COSMO solvation model)
   Jiri Pittner, Ondrej Demel                    : Mk-CCSD
   Frank Weinhold                                : gennbo (NPA and NBO analysis)
   Christopher J. Cramer and Donald G. Truhlar   : smd solvation model
   Lars Goerigk                                  : TD-DFT with DH, B97 family of functionals
   V. Asgeirsson, H. Jonsson                     : NEB implementation
   FAccTs GmbH                                   : IRC, NEB, NEB-TS, Multilevel, MM, QM/MM, CI optimization
   S Lehtola, MJT Oliveira, MAL Marques          : LibXC Library


 Your calculation uses the libint2 library for the computation of 2-el integrals
 For citations please refer to: http://libint.valeyev.net

 Your ORCA version has been built with support for libXC version: 4.2.3
 For citations please refer to: https://tddft.org/programs/libxc/

 This ORCA versions uses:
   CBLAS   interface :  Fast vector & matrix operations
   LAPACKE interface :  Fast linear algebra routines
   SCALAPACK package :  Parallel linear algebra routines


----- Orbital basis set information -----
Your calculation utilizes the basis: 6-311++G(3df,3pd)
   H, Li - Ne  : R. Krishnan, J. S. Binkley, R. Seeger and J. A. Pople, J. Chem. Phys. 72, 650 (1980).
   Na - Ar     : A. D. McLean and G. S. Chandler J. Chem. Phys. 72, 5639, (1980).
   K  - Ca     : J.-P. Blaudeau, M. P. McGrath, L. A. Curtiss and L. Radom, J. Chem. Phys. 107, 5016 (1997).
   Ga - Kr     : L. A. Curtiss, M. P. McGrath, J.-P. Blandeau, N. E. Davis, R. C. Binning and L. Radom, J. Chem. Phys. 103, 6104 (1995).
   Pol./Diff.
   H, Li - Cl  : T. Clark, J. Chandrasekhar and P. v. R. Schleyer, J. Comp. Chem. 4, 294 (1983).
   H - Ne      : M. J. Frisch, J. A. Pople and J. S. Binkley, J. Chem. Phys. 80, 3265 (1984).

================================================================================
                                        WARNINGS
                       Please study these warnings very carefully!
================================================================================


WARNING: MDCI localization with Augmented Hessian Foster-Boys
  ===> : Switching off randomization!

WARNING: Post HF methods need fully converged wavefunctions
  ===> : Setting SCFConvForced true
         You can overwrite this default with %scf ConvForced false 


INFO   : the flag for use of LIBINT has been found!

================================================================================
                                       INPUT FILE
================================================================================
NAME = orca.inp
|  1> !QCISD(T) 6-311++G(3df,3pd) ENERGY
|  2> 
|  3> %paras
|  4> 	R = 2.0, 0.4, 33 # x-axis of H1
|  5> end
|  6> 
|  7> *xyz 0 1
|  8> H    0.0000000    0.0000000    0.0000000
|  9> H    {R}                0.0000000    0.0000000
| 10> **                         ****END OF INPUT****
================================================================================

                       ******************************
                       * Parameter Scan Calculation *
                       ******************************

Trajectory settings:
    -> SCF surface will be mapped
    -> MDCI surface will be mapped

There are 1 parameter(s) to be scanned
             R: range=   2.00000000 ..   0.40000000  steps=   33
There will be   33 energy evaluations


         *************************************************************
                                TRAJECTORY STEP   1
                  R  :   2.00000000
         *************************************************************
---------------------------------
CARTESIAN COORDINATES (ANGSTROEM)
---------------------------------
  H      0.000000    0.000000    0.000000
  H      2.000000    0.000000    0.000000

----------------------------
CARTESIAN COORDINATES (A.U.)
----------------------------
  NO LB      ZA    FRAG     MASS         X           Y           Z
   0 H     1.0000    0     1.008    0.000000    0.000000    0.000000
   1 H     1.0000    0     1.008    3.779452    0.000000    0.000000

--------------------------------
INTERNAL COORDINATES (ANGSTROEM)
--------------------------------
 H      0   0   0     0.000000000000     0.00000000     0.00000000
 H      1   0   0     2.000000000000     0.00000000     0.00000000

---------------------------
INTERNAL COORDINATES (A.U.)
---------------------------
 H      0   0   0     0.000000000000     0.00000000     0.00000000
 H      1   0   0     3.779452267843     0.00000000     0.00000000

---------------------
BASIS SET INFORMATION
---------------------
There are 1 groups of distinct atoms

 Group   1 Type H   : 6s3p1d contracted to 4s3p1d pattern {3111/111/1}

Atom   0H    basis set group =>   1
Atom   1H    basis set group =>   1
------------------------------------------------------------------------------
                           ORCA GTO INTEGRAL CALCULATION
------------------------------------------------------------------------------

                         BASIS SET STATISTICS AND STARTUP INFO

 # of primitive gaussian shells          ...   20
 # of primitive gaussian functions       ...   40
 # of contracted shells                  ...   16
 # of contracted basis functions         ...   36
 Highest angular momentum                ...    2
 Maximum contraction depth               ...    3
 Integral package used                   ... LIBINT
 Integral threshhold            Thresh   ...  1.000e-10
 Primitive cut-off              TCut     ...  1.000e-11


------------------------------ INTEGRAL EVALUATION ----------------------------


 * One electron integrals 
 Pre-screening matrix                    ... done
 Shell pair data                         ... done (   0.000 sec)

-------------------------------------------------------------------------------
                                 ORCA SCF
-------------------------------------------------------------------------------

------------
SCF SETTINGS
------------
Hamiltonian:
 Ab initio Hamiltonian  Method          .... Hartree-Fock(GTOs)


General Settings:
 Integral files         IntName         .... orca
 Hartree-Fock type      HFTyp           .... RHF
 Total Charge           Charge          ....    0
 Multiplicity           Mult            ....    1
 Number of Electrons    NEL             ....    2
 Basis Dimension        Dim             ....   36
 Nuclear Repulsion      ENuc            ....      0.2645886042 Eh

Convergence Acceleration:
 DIIS                   CNVDIIS         .... on
   Start iteration      DIISMaxIt       ....    12
   Startup error        DIISStart       ....  0.200000
   # of expansion vecs  DIISMaxEq       ....     5
   Bias factor          DIISBfac        ....   1.050
   Max. coefficient     DIISMaxC        ....  10.000
 Newton-Raphson         CNVNR           .... off
 SOSCF                  CNVSOSCF        .... on
   Start iteration      SOSCFMaxIt      ....   150
   Startup grad/error   SOSCFStart      ....  0.003300
 Level Shifting         CNVShift        .... on
   Level shift para.    LevelShift      ....    0.2500
   Turn off err/grad.   ShiftErr        ....    0.0010
 Zerner damping         CNVZerner       .... off
 Static damping         CNVDamp         .... on
   Fraction old density DampFac         ....    0.7000
   Max. Damping (<1)    DampMax         ....    0.9800
   Min. Damping (>=0)   DampMin         ....    0.0000
   Turn off err/grad.   DampErr         ....    0.1000
 Fernandez-Rico         CNVRico         .... off

SCF Procedure:
 Maximum # iterations   MaxIter         ....   125
 SCF integral mode      SCFMode         .... Direct
   Integral package                     .... LIBINT
 Reset frequency        DirectResetFreq ....    20
 Integral Threshold     Thresh          ....  1.000e-10 Eh
 Primitive CutOff       TCut            ....  1.000e-11 Eh

Convergence Tolerance:
 Convergence Check Mode ConvCheckMode   .... Total+1el-Energy
 Convergence forced     ConvForced      .... 1
 Energy Change          TolE            ....  1.000e-06 Eh
 1-El. energy change                    ....  1.000e-03 Eh
 Orbital Gradient       TolG            ....  5.000e-05
 Orbital Rotation angle TolX            ....  5.000e-05
 DIIS Error             TolErr          ....  1.000e-06


Diagonalization of the overlap matrix:
Smallest eigenvalue                        ... 2.482e-02
Time for diagonalization                   ...    0.073 sec
Threshold for overlap eigenvalues          ... 1.000e-08
Number of eigenvalues below threshold      ... 0
Time for construction of square roots      ...    0.000 sec
Total time needed                          ...    0.073 sec

-------------------
DFT GRID GENERATION
-------------------

General Integration Accuracy     IntAcc      ...  4.340
Radial Grid Type                 RadialGrid  ... Gauss-Chebyshev
Angular Grid (max. acc.)         AngularGrid ... Lebedev-110
Angular grid pruning method      GridPruning ... 3 (G Style)
Weight generation scheme         WeightScheme... Becke
Basis function cutoff            BFCut       ...    1.0000e-10
Integration weight cutoff        WCut        ...    1.0000e-14
Grids for H and He will be reduced by one unit

# of grid points (after initial pruning)     ...   1588 (   0.0 sec)
# of grid points (after weights+screening)   ...   1574 (   0.0 sec)
nearest neighbour list constructed           ...    0.0 sec
Grid point re-assignment to atoms done       ...    0.0 sec
Grid point division into batches done        ...    0.0 sec
Reduced shell lists constructed in    0.0 sec

Total number of grid points                  ...     1574
Total number of batches                      ...       26
Average number of points per batch           ...       60
Average number of grid points per atom       ...      787
Average number of shells per batch           ...    14.70 (91.90%)
Average number of basis functions per batch  ...    32.70 (90.84%)
Average number of large shells per batch     ...    13.81 (93.95%)
Average number of large basis fcns per batch ...    30.48 (93.20%)
Maximum spatial batch extension              ...  15.12, 21.59, 21.59 au
Average spatial batch extension              ...   5.39,  8.42,  8.66 au

Time for grid setup =    0.005 sec

------------------------------
INITIAL GUESS: MODEL POTENTIAL
------------------------------
Loading Hartree-Fock densities                     ... done
Calculating cut-offs                               ... done
Setting up the integral package                    ... done
Initializing the effective Hamiltonian             ... done
Starting the Coulomb interaction                   ... done (   0.0 sec)
Reading the grid                                   ... done
Mapping shells                                     ... done
Starting the XC term evaluation                    ... done (   0.0 sec)
Transforming the Hamiltonian                       ... done (   0.0 sec)
Diagonalizing the Hamiltonian                      ... done (   0.0 sec)
Back transforming the eigenvectors                 ... done (   0.0 sec)
Now organizing SCF variables                       ... done
                      ------------------
                      INITIAL GUESS DONE (   0.1 sec)
                      ------------------
--------------
SCF ITERATIONS
--------------
ITER       Energy         Delta-E        Max-DP      RMS-DP      [F,P]     Damp
               ***  Starting incremental Fock matrix formation  ***
  0     -0.9243212894   0.000000000000 0.00218081  0.00020859  0.0301083 0.7000
  1     -0.9247251966  -0.000403907243 0.00218171  0.00020658  0.0235861 0.7000
                               ***Turning on DIIS***
  2     -0.9250556468  -0.000330450157 0.00596442  0.00056748  0.0178894 0.0000
  3     -0.9263345105  -0.001278863682 0.00240910  0.00017459  0.0032664 0.0000
                      *** Initiating the SOSCF procedure ***
                           *** Shutting down DIIS ***
                      *** Re-Reading the Fockian *** 
                      *** Removing any level shift *** 
ITER      Energy       Delta-E        Grad      Rot      Max-DP    RMS-DP
  4     -0.92610672   0.0002277949  0.000937  0.000937  0.001002  0.000076
               *** Restarting incremental Fock matrix formation ***
  5     -0.92601917   0.0000875487  0.000085  0.000179  0.000179  0.000014
                 **** Energy Check signals convergence ****
              ***Rediagonalizing the Fockian in SOSCF/NRSCF***

               *****************************************************
               *                     SUCCESS                       *
               *           SCF CONVERGED AFTER   6 CYCLES          *
               *****************************************************


----------------
TOTAL SCF ENERGY
----------------

Total Energy       :           -0.92601923 Eh             -25.19826 eV

Components:
Nuclear Repulsion  :            0.26458860 Eh               7.19982 eV
Electronic Energy  :           -1.19060783 Eh             -32.39809 eV
One Electron Energy:           -1.60315209 Eh             -43.62399 eV
Two Electron Energy:            0.41254425 Eh              11.22590 eV

Virial components:
Potential Energy   :           -1.58800390 Eh             -43.21178 eV
Kinetic Energy     :            0.66198467 Eh              18.01352 eV
Virial Ratio       :            2.39885298


---------------
SCF CONVERGENCE
---------------

  Last Energy change         ...   -6.1035e-08  Tolerance :   1.0000e-06
  Last MAX-Density change    ...    8.1464e-05  Tolerance :   1.0000e-05
  Last RMS-Density change    ...    5.9760e-06  Tolerance :   1.0000e-06
  Last Orbital Gradient      ...    2.7055e-05  Tolerance :   5.0000e-05
  Last Orbital Rotation      ...    8.0687e-05  Tolerance :   5.0000e-05

             **** THE GBW FILE WAS UPDATED (orca.gbw) ****
             **** DENSITY FILE WAS UPDATED (orca.scfp) ****
             **** ENERGY FILE WAS UPDATED (orca.en.tmp) ****
             **** THE GBW FILE WAS UPDATED (orca.gbw) ****
             **** DENSITY FILE WAS UPDATED (orca.scfp) ****
----------------
ORBITAL ENERGIES
----------------

  NO   OCC          E(Eh)            E(eV) 
   0   2.0000      -0.389025       -10.5859 
   1   0.0000      -0.046537        -1.2663 
   2   0.0000       0.088522         2.4088 
   3   0.0000       0.109132         2.9696 
   4   0.0000       0.326141         8.8748 
   5   0.0000       0.326141         8.8748 
   6   0.0000       0.401042        10.9129 
   7   0.0000       0.468393        12.7456 
   8   0.0000       0.468393        12.7456 
   9   0.0000       0.534192        14.5361 
  10   0.0000       0.565788        15.3959 
  11   0.0000       0.699268        19.0281 
  12   0.0000       1.925367        52.3919 
  13   0.0000       1.925367        52.3919 
  14   0.0000       1.952981        53.1433 
  15   0.0000       1.952981        53.1433 
  16   0.0000       2.002199        54.4826 
  17   0.0000       2.013572        54.7921 
  18   0.0000       2.551407        69.4273 
  19   0.0000       2.705232        73.6131 
  20   0.0000       3.128640        85.1346 
  21   0.0000       3.185077        86.6704 
  22   0.0000       3.185077        86.6704 
  23   0.0000       3.230922        87.9179 
  24   0.0000       3.230922        87.9179 
  25   0.0000       3.242655        88.2371 
  26   0.0000       3.242655        88.2371 
  27   0.0000       3.322348        90.4057 
  28   0.0000       3.322348        90.4057 
  29   0.0000       3.656970        99.5112 
  30   0.0000       8.458566       230.1693 
  31   0.0000       8.458566       230.1693 
  32   0.0000       8.482746       230.8273 
  33   0.0000       8.482746       230.8273 
  34   0.0000       8.494865       231.1570 
  35   0.0000       8.575132       233.3412 

                    ********************************
                    * MULLIKEN POPULATION ANALYSIS *
                    ********************************

-----------------------
MULLIKEN ATOMIC CHARGES
-----------------------
   0 H :   -0.000000
   1 H :    0.000000
Sum of atomic charges:   -0.0000000

--------------------------------
MULLIKEN REDUCED ORBITAL CHARGES
--------------------------------
  0 H s       :     0.982925  s :     0.982925
      pz      :     0.000000  p :     0.016982
      px      :     0.016982
      py      :     0.000000
      dz2     :     0.000023  d :     0.000093
      dxz     :    -0.000000
      dyz     :     0.000000
      dx2y2   :     0.000070
      dxy     :     0.000000
  1 H s       :     0.982925  s :     0.982925
      pz      :     0.000000  p :     0.016982
      px      :     0.016982
      py      :     0.000000
      dz2     :     0.000023  d :     0.000093
      dxz     :     0.000000
      dyz     :     0.000000
      dx2y2   :     0.000070
      dxy     :     0.000000


                     *******************************
                     * LOEWDIN POPULATION ANALYSIS *
                     *******************************

----------------------
LOEWDIN ATOMIC CHARGES
----------------------
   0 H :   -0.000000
   1 H :    0.000000

-------------------------------
LOEWDIN REDUCED ORBITAL CHARGES
-------------------------------
  0 H s       :     0.970510  s :     0.970510
      pz      :     0.000000  p :     0.029258
      px      :     0.029258
      py      :     0.000000
      dz2     :     0.000058  d :     0.000232
      dxz     :     0.000000
      dyz     :     0.000000
      dx2y2   :     0.000174
      dxy     :     0.000000
  1 H s       :     0.970510  s :     0.970510
      pz      :     0.000000  p :     0.029258
      px      :     0.029258
      py      :     0.000000
      dz2     :     0.000058  d :     0.000232
      dxz     :     0.000000
      dyz     :     0.000000
      dx2y2   :     0.000174
      dxy     :     0.000000


                      *****************************
                      * MAYER POPULATION ANALYSIS *
                      *****************************

  NA   - Mulliken gross atomic population
  ZA   - Total nuclear charge
  QA   - Mulliken gross atomic charge
  VA   - Mayer's total valence
  BVA  - Mayer's bonded valence
  FA   - Mayer's free valence

  ATOM       NA         ZA         QA         VA         BVA        FA
  0 H      1.0000     1.0000    -0.0000     1.0000     1.0000    -0.0000
  1 H      1.0000     1.0000     0.0000     1.0000     1.0000    -0.0000

  Mayer bond orders larger than 0.100000
B(  0-H ,  1-H ) :   1.0000 

-------
TIMINGS
-------

Total SCF time: 0 days 0 hours 0 min 0 sec 

Total time                  ....       0.792 sec
Sum of individual times     ....       0.572 sec  ( 72.1%)

Fock matrix formation       ....       0.454 sec  ( 57.3%)
Diagonalization             ....       0.001 sec  (  0.1%)
Density matrix formation    ....       0.000 sec  (  0.0%)
Population analysis         ....       0.000 sec  (  0.1%)
Initial guess               ....       0.110 sec  ( 13.9%)
Orbital Transformation      ....       0.000 sec  (  0.0%)
Orbital Orthonormalization  ....       0.000 sec  (  0.0%)
DIIS solution               ....       0.000 sec  (  0.1%)
SOSCF solution              ....       0.000 sec  (  0.0%)


------------------------------------------------------------------------------- 
                              ORCA-MATRIX DRIVEN CI                            
------------------------------------------------------------------------------- 

--------------------------------
AUTOMATIC CHOICE OF INCORE LEVEL
--------------------------------

Memory available                           ...    256.00 MB
Memory needed for S+T                      ...      0.02 MB
Memory needed for J+K                      ...      0.06 MB
Memory needed for DIIS                     ...      0.26 MB
Memory needed for 3-ext                    ...      0.33 MB
Memory needed for 4-ext                    ...      5.89 MB
Memory needed for triples                  ...      1.64 MB
 -> Final InCoreLevel    ... 5
 -> check shows that triples correction can be computed


Wavefunction type
-----------------
Correlation treatment                      ...     QCISD     
Single excitations                         ... ON
Orbital optimization                       ... OFF
Calculation of Z vector                    ... OFF
Calculation of Brueckner orbitals          ... OFF
Perturbative triple excitations            ... ON
Calculation of F12 correction              ... OFF
Frozen core treatment                      ... chemical core (0 el)
Reference Wavefunction                     ... RHF
  Internal Orbitals:     0 ...    0 (  1 MO's/  2 electrons)
  Virtual  Orbitals:     1 ...   35 ( 35 MO's              )
Number of AO's                             ...     36
Number of electrons                        ...      2
Number of correlated electrons             ...      2

Algorithmic settings
--------------------
Integral transformation                    ... AO direct full transformation
K(C) Formation                             ... FULL-MO TRAFO
Maximum number of iterations               ...        50
Convergence tolerance (max. residuum)      ... 2.500e-05
Level shift for amplitude update           ... 2.000e-01
Maximum number of DIIS vectors             ...         7
DIIS turned on at iteration                ...         0
Damping before turning on DIIS             ...     0.500
Damping after turning on DIIS              ...     0.000
Pair specific amplitude update             ... OFF
Natural orbital iterations                 ... OFF
Perturbative natural orbital generation    ... OFF
Printlevel                                 ... 2

Memory handling:
----------------
Maximum memory for working arrays          ...    256 MB
Data storage in matrix containers          ... UNCOMPRESSED
Data type for integral storage             ... DOUBLE
In-Core Storage of quantities:
   Amplitudes+Sigma Vector      ... YES
   J+K operators                ... YES
   DIIS vectors                 ... YES
   3-external integrals         ... YES
   4-external integrals         ... YES


Initializing the integral package          ... done
Warning: reference  - re-canonicalizations have been set to INT 1 VIRT 1

--------------------------
CLOSED-SHELL FOCK OPERATOR
--------------------------

<ss|ss>:          666 b            0 skpd (  0.0%)    0.000 s ( 0.000 ms/b)
<ss|sp>:         1728 b            0 skpd (  0.0%)    0.001 s ( 0.000 ms/b)
<ss|sd>:          576 b            0 skpd (  0.0%)    0.000 s ( 0.001 ms/b)
<ss|pp>:          756 b           12 skpd (  1.6%)    0.000 s ( 0.001 ms/b)
<ss|pd>:          432 b            0 skpd (  0.0%)    0.000 s ( 0.001 ms/b)
<ss|dd>:          108 b            0 skpd (  0.0%)    0.000 s ( 0.001 ms/b)
<sp|sp>:         1176 b            3 skpd (  0.3%)    0.001 s ( 0.001 ms/b)
<sp|sd>:          768 b            0 skpd (  0.0%)    0.001 s ( 0.001 ms/b)
<sp|pp>:         1008 b           44 skpd (  4.4%)    0.001 s ( 0.001 ms/b)
<sp|pd>:          576 b            4 skpd (  0.7%)    0.001 s ( 0.002 ms/b)
<sp|dd>:          144 b            0 skpd (  0.0%)    0.000 s ( 0.003 ms/b)
<sd|sd>:          136 b            0 skpd (  0.0%)    0.000 s ( 0.002 ms/b)
<sd|pp>:          336 b           16 skpd (  4.8%)    0.001 s ( 0.002 ms/b)
<sd|pd>:          192 b            0 skpd (  0.0%)    0.001 s ( 0.004 ms/b)
<sd|dd>:           48 b            0 skpd (  0.0%)    0.000 s ( 0.007 ms/b)
<pp|pp>:          231 b           21 skpd (  9.1%)    0.001 s ( 0.003 ms/b)
<pp|pd>:          252 b           16 skpd (  6.3%)    0.001 s ( 0.005 ms/b)
<pp|dd>:           63 b            3 skpd (  4.8%)    0.000 s ( 0.008 ms/b)
<pd|pd>:           78 b            3 skpd (  3.8%)    0.001 s ( 0.010 ms/b)
<pd|dd>:           36 b            0 skpd (  0.0%)    0.001 s ( 0.017 ms/b)
<dd|dd>:            6 b            0 skpd (  0.0%)    0.000 s ( 0.032 ms/b)
Recanonicalizing the internal orbitals
Recanonicalizing the virtual orbitals
Time needed for Fock operator              ...            0.110 sec
Reference energy                           ...     -0.926019234

------------------------------
PARTIAL COULOMB TRANSFORMATION
------------------------------

Transformation type                        ... one-operator
Dimension of the basis                     ...   36
Number of internal MOs                     ...   36 (0-35)
Pair cutoff                                ... 0.000e+00 Eh
Number of AO pairs included in the trafo   ...  666
Total Number of distinct AO pairs          ...  666
Memory devoted for trafo                   ...  256.0 MB 
Max. Number of MO pairs treated together   ... 50382      
Max. Number of MOs treated per batch       ... 1399      
Number Format for Storage                  ... Double (8 Byte)
AO-integral source                         ... DIRECT
Integral package used                      ... LIBINT

Starting integral evaluation:
<ss|**>:         4896 b        0 skpd     0.003 s (  0.001 ms/b)
<sp|**>:         6528 b        0 skpd     0.006 s (  0.001 ms/b)
<sd|**>:         2176 b        0 skpd     0.003 s (  0.002 ms/b)
<pp|**>:         2856 b        0 skpd     0.005 s (  0.002 ms/b)
<pd|**>:         1632 b        0 skpd     0.006 s (  0.003 ms/b)
<dd|**>:          408 b        0 skpd     0.002 s (  0.005 ms/b)
Closing buffer AOJ ( 0.00 GB; CompressionRatio= 1.00)
Collecting buffer AOJ 
    ... done with AO integral generation
Number of MO pairs included in the trafo   ...  666
    ... Now sorting integrals
IBATCH = 1 of  1
Closing buffer JAO ( 0.00 GB; CompressionRatio= 1.00)
Collecting buffer JAO 
TOTAL TIME for half transformation         ...     0.036 sec
AO-integral generation                     ...     0.012 sec
Half transformation                        ...     0.013 sec
J-integral sorting                         ...     0.010 sec

-------------------------- SECOND HALF TRANSFORMATION -------------------------
Formation of (pq|rs)                       ... ok (     0.011 sec)
Integral sorting                           ... ok (     0.009 sec)

------------------
CLOSED SHELL GUESS
------------------

Initial guess performed in     0.000 sec
E(0)                                       ...     -0.926019234
E(MP2)                                     ...     -0.051992751
Initial E(tot)                             ...     -0.978011985
<T|T>                                      ...      0.054948581
Number of pairs included                   ... 1
Total number of pairs                      ... 1

---------------------------
RHF QUADRATIC CI ITERATIONS
---------------------------

Number of amplitudes to be optimized       ... 1260

Iter       E(tot)           E(Corr)          Delta-E          Residual     Time
  0     -0.978011985     -0.051992751      0.000000000      0.067234803    0.00
                           *** Turning on DIIS ***
  1     -0.990609917     -0.064590683     -0.012597932      0.050843315    0.00
  2     -1.004336475     -0.078317242     -0.013726558      0.029768549    0.00
  3     -1.019428489     -0.093409255     -0.015092013      0.003359398    0.00
  4     -1.020657343     -0.094638109     -0.001228854      0.000699114    0.00
  5     -1.020827895     -0.094808661     -0.000170552      0.000183655    0.00
  6     -1.020896691     -0.094877457     -0.000068796      0.000033522    0.00
  7     -1.020894215     -0.094874981      0.000002476      0.000007722    0.00
               --- The Quadratic CI iterations have converged ---

-------------------
QUADRATIC CI ENERGY
-------------------

E(0)                                       ...     -0.926019234
E(CORR)                                    ...     -0.094874981
E(TOT)                                     ...     -1.020894215
Singles Norm <S|S>**1/2                    ...      0.088357259  
T1 diagnostic                              ...      0.062478017  

------------------
LARGEST AMPLITUDES
------------------
   0->  1   0->  1       0.447846
   0->  3   0->  1       0.145476
   0->  1   0->  3       0.145476
   0->  1   0->  9       0.092821
   0->  9   0->  1       0.092821
   0-> 10  -1-> -1       0.067346
   0->  2  -1-> -1       0.049035
   0->  3   0->  3       0.047601
   0->  3   0->  9       0.031184
   0->  9   0->  3       0.031184
   0->  5   0->  5       0.028154
   0->  4   0->  4       0.028154
   0->  6  -1-> -1       0.026636
   0->  6   0->  6       0.023379
   0->  9   0->  9       0.022671
   0->  6   0->  2       0.012930


        !!!!!!!!!!!!!!!!!!!!!!!!!!!!!!!!!!!!!!!!!!!!!!!!!!!!!!!!!!!!!!!!!!!!!!!!!! 
        !  Warning: Densities are linearized densities !                         !
        !!!!!!!!!!!!!!!!!!!!!!!!!!!!!!!!!!!!!!!!!!!!!!!!!!!!!!!!!!!!!!!!!!!!!!!!!! 

Trace of internal density part =     -0.552071871
Trace of external density part =      0.552071871
----------------------
RHF TRIPLES CORRECTION (Algorithm 1)
----------------------

Multiplier for the singles contribution    ...      2.000000000

Triples Correction (T)                     ...      0.000000000
Scaling of triples based on CCSD energies (Peterson et al. Molecular Physics 113, 1551 (2015))
E(T*) = f*E(T) where f = E(F12-CCSD)/E(CCSD) 
f = CCSD (with F12)/ CCSD (without F12)    ...      1.000000000
Scaled triples correction (T)              ...      0.000000000

Final correlation energy                   ...     -0.094874981
E(QCISD)                                   ...     -1.020894215
E(QCISD(T))                                ...     -1.020894215

NORM  =      1.283842941 sqrt=     1.133067933
W(HF) =      0.778911476
------------------------------------------------------------------------------
                           ORCA POPULATION ANALYSIS
------------------------------------------------------------------------------
Input electron density              ... orca.mdcip
BaseName (.gbw .S,...)              ... orca

                    ********************************
                    * MULLIKEN POPULATION ANALYSIS *
                    ********************************

-----------------------
MULLIKEN ATOMIC CHARGES
-----------------------
   0 H :    0.000000
   1 H :   -0.000000
Sum of atomic charges:   -0.0000000

--------------------------------
MULLIKEN REDUCED ORBITAL CHARGES
--------------------------------
  0 H s       :     0.998433  s :     0.998433
      pz      :     0.000893  p :     0.001480
      px      :    -0.000306
      py      :     0.000893
      dz2     :     0.000014  d :     0.000087
      dxz     :     0.000016
      dyz     :     0.000002
      dx2y2   :     0.000038
      dxy     :     0.000016
  1 H s       :     0.998433  s :     0.998433
      pz      :     0.000893  p :     0.001480
      px      :    -0.000306
      py      :     0.000893
      dz2     :     0.000014  d :     0.000087
      dxz     :     0.000016
      dyz     :     0.000002
      dx2y2   :     0.000038
      dxy     :     0.000016


                     *******************************
                     * LOEWDIN POPULATION ANALYSIS *
                     *******************************

----------------------
LOEWDIN ATOMIC CHARGES
----------------------
   0 H :    0.000000
   1 H :   -0.000000

-------------------------------
LOEWDIN REDUCED ORBITAL CHARGES
-------------------------------
  0 H s       :     0.973376  s :     0.973376
      pz      :     0.000893  p :     0.026227
      px      :     0.024441
      py      :     0.000893
      dz2     :     0.000092  d :     0.000397
      dxz     :     0.000016
      dyz     :     0.000002
      dx2y2   :     0.000271
      dxy     :     0.000016
  1 H s       :     0.973376  s :     0.973376
      pz      :     0.000893  p :     0.026227
      px      :     0.024441
      py      :     0.000893
      dz2     :     0.000092  d :     0.000397
      dxz     :     0.000016
      dyz     :     0.000002
      dx2y2   :     0.000271
      dxy     :     0.000016


                      *****************************
                      * MAYER POPULATION ANALYSIS *
                      *****************************

  NA   - Mulliken gross atomic population
  ZA   - Total nuclear charge
  QA   - Mulliken gross atomic charge
  VA   - Mayer's total valence
  BVA  - Mayer's bonded valence
  FA   - Mayer's free valence

  ATOM       NA         ZA         QA         VA         BVA        FA
  0 H      1.0000     1.0000     0.0000     1.0033     0.2236     0.7797
  1 H      1.0000     1.0000    -0.0000     1.0033     0.2236     0.7797

  Mayer bond orders larger than 0.100000
B(  0-H ,  1-H ) :   0.2236 



------------------------------------------------------------------------------- 
                                     TIMINGS                                   
------------------------------------------------------------------------------- 


Total execution time                   ...        1.398 sec

Fock Matrix Formation                  ...        0.110 sec (  7.9%)
Initial Guess                          ...        0.000 sec (  0.0%)
DIIS Solver                            ...        0.000 sec (  0.0%)
State Vector Update                    ...        0.000 sec (  0.0%)
Sigma-vector construction              ...        0.018 sec (  1.3%)
  <D|H|D>(4-ext)                       ...        0.014 sec ( 79.9% of sigma)
  <S|H|D>(3-ext)                       ...        0.001 sec (  5.7% of sigma)
Total Time for computing (T)           ...        0.000 sec (  0.0% of ALL)


-------------------------   --------------------
FINAL SINGLE POINT ENERGY        -1.020894214902
-------------------------   --------------------

Storing actual gbw-file in orca.001.gbw ... done

                            ***************************************
                            *     ORCA property calculations      *
                            ***************************************

                                    ---------------------
                                    Active property flags
                                    ---------------------
   (+) Dipole Moment


------------------------------------------------------------------------------
                       ORCA ELECTRIC PROPERTIES CALCULATION
------------------------------------------------------------------------------

Dipole Moment Calculation                       ... on
Quadrupole Moment Calculation                   ... off
Polarizability Calculation                      ... off
GBWName                                         ... orca.gbw
Electron density file                           ... orca.scfp
The origin for moment calculation is the CENTER OF MASS  = ( 1.889726,  0.000000  0.000000)

-------------
DIPOLE MOMENT
-------------
                                X             Y             Z
Electronic contribution:      0.00000      -0.00000       0.00000
Nuclear contribution   :      0.00000       0.00000       0.00000
                        -----------------------------------------
Total Dipole Moment    :      0.00000      -0.00000       0.00000
                        -----------------------------------------
Magnitude (a.u.)       :      0.00000
Magnitude (Debye)      :      0.00000



--------------------
Rotational spectrum 
--------------------
 
Rotational constants in cm-1:     0.000000     8.361927     8.361927 
Rotational constants in MHz :     0.000000 250684.265719 250684.265719 

 Dipole components along the rotational axes: 
x,y,z [a.u.] :     0.000000    -0.000000     0.000000 
x,y,z [Debye]:     0.000000    -0.000000     0.000000 

 

                           *** MDCI DENSITY ***

------------------------------------------------------------------------------
                       ORCA ELECTRIC PROPERTIES CALCULATION
------------------------------------------------------------------------------

Dipole Moment Calculation                       ... on
Quadrupole Moment Calculation                   ... off
Polarizability Calculation                      ... off
GBWName                                         ... orca.gbw
Electron density file                           ... orca.mdcip
The origin for moment calculation is the CENTER OF MASS  = ( 1.889726,  0.000000  0.000000)

-------------
DIPOLE MOMENT
-------------
                                X             Y             Z
Electronic contribution:     -0.00000       0.00000       0.00000
Nuclear contribution   :      0.00000       0.00000       0.00000
                        -----------------------------------------
Total Dipole Moment    :     -0.00000       0.00000       0.00000
                        -----------------------------------------
Magnitude (a.u.)       :      0.00000
Magnitude (Debye)      :      0.00000



--------------------
Rotational spectrum 
--------------------
 
Rotational constants in cm-1:     0.000000     8.361927     8.361927 
Rotational constants in MHz :     0.000000 250684.265719 250684.265719 

 Dipole components along the rotational axes: 
x,y,z [a.u.] :    -0.000000     0.000000     0.000000 
x,y,z [Debye]:    -0.000000     0.000000     0.000000 

 

         *************************************************************
                                TRAJECTORY STEP   2
                  R  :   1.95000000
         *************************************************************
---------------------------------
CARTESIAN COORDINATES (ANGSTROEM)
---------------------------------
  H      0.000000    0.000000    0.000000
  H      1.950000    0.000000    0.000000

----------------------------
CARTESIAN COORDINATES (A.U.)
----------------------------
  NO LB      ZA    FRAG     MASS         X           Y           Z
   0 H     1.0000    0     1.008    0.000000    0.000000    0.000000
   1 H     1.0000    0     1.008    3.684966    0.000000    0.000000

--------------------------------
INTERNAL COORDINATES (ANGSTROEM)
--------------------------------
 H      0   0   0     0.000000000000     0.00000000     0.00000000
 H      1   0   0     1.950000000000     0.00000000     0.00000000

---------------------------
INTERNAL COORDINATES (A.U.)
---------------------------
 H      0   0   0     0.000000000000     0.00000000     0.00000000
 H      1   0   0     3.684965961146     0.00000000     0.00000000


Diagonalization of the overlap matrix:
Smallest eigenvalue                        ... 2.370e-02
Time for diagonalization                   ...    0.000 sec
Threshold for overlap eigenvalues          ... 1.000e-08
Number of eigenvalues below threshold      ... 0
Time for construction of square roots      ...    0.000 sec
Total time needed                          ...    0.001 sec

--------------
SCF ITERATIONS
--------------
ITER       Energy         Delta-E        Max-DP      RMS-DP      [F,P]     Damp
               ***  Starting incremental Fock matrix formation  ***
                      *** Initiating the SOSCF procedure ***
                      *** Re-Reading the Fockian *** 
                      *** Removing any level shift *** 
ITER      Energy       Delta-E        Grad      Rot      Max-DP    RMS-DP
  0     -0.93268842  -0.9326884204  0.002104  0.002104  0.001619  0.000117
               *** Restarting incremental Fock matrix formation ***
  1     -0.93270987  -0.0000214475  0.000775  0.001256  0.000921  0.000062
  2     -0.93271371  -0.0000038377  0.000178  0.000496  0.000289  0.000022
                 **** Energy Check signals convergence ****
              ***Rediagonalizing the Fockian in SOSCF/NRSCF***

               *****************************************************
               *                     SUCCESS                       *
               *           SCF CONVERGED AFTER   3 CYCLES          *
               *****************************************************

Total Energy       :           -0.93271397 Eh             -25.38044 eV
  Last Energy change         ...   -2.6186e-07  Tolerance :   1.0000e-06
  Last MAX-Density change    ...    4.7264e-05  Tolerance :   1.0000e-05
             **** THE GBW FILE WAS UPDATED (orca.gbw) ****
             **** DENSITY FILE WAS UPDATED (orca.scfp) ****
             **** ENERGY FILE WAS UPDATED (orca.en.tmp) ****
             **** THE GBW FILE WAS UPDATED (orca.gbw) ****
             **** DENSITY FILE WAS UPDATED (orca.scfp) ****
Total SCF time: 0 days 0 hours 0 min 0 sec 


------------------------------------------------------------------------------- 
                              ORCA-MATRIX DRIVEN CI                            
------------------------------------------------------------------------------- 

--------------------------------
AUTOMATIC CHOICE OF INCORE LEVEL
--------------------------------

Memory available                           ...    256.00 MB
Memory needed for S+T                      ...      0.02 MB
Memory needed for J+K                      ...      0.06 MB
Memory needed for DIIS                     ...      0.26 MB
Memory needed for 3-ext                    ...      0.33 MB
Memory needed for 4-ext                    ...      5.89 MB
Memory needed for triples                  ...      1.64 MB
 -> Final InCoreLevel    ... 5
 -> check shows that triples correction can be computed


Wavefunction type
-----------------
Correlation treatment                      ...     QCISD     
Single excitations                         ... ON
Orbital optimization                       ... OFF
Calculation of Z vector                    ... OFF
Calculation of Brueckner orbitals          ... OFF
Perturbative triple excitations            ... ON
Calculation of F12 correction              ... OFF
Frozen core treatment                      ... chemical core (0 el)
Reference Wavefunction                     ... RHF
  Internal Orbitals:     0 ...    0 (  1 MO's/  2 electrons)
  Virtual  Orbitals:     1 ...   35 ( 35 MO's              )
Number of AO's                             ...     36
Number of electrons                        ...      2
Number of correlated electrons             ...      2

Algorithmic settings
--------------------
Integral transformation                    ... AO direct full transformation
K(C) Formation                             ... FULL-MO TRAFO
Maximum number of iterations               ...        50
Convergence tolerance (max. residuum)      ... 2.500e-05
Level shift for amplitude update           ... 2.000e-01
Maximum number of DIIS vectors             ...         7
DIIS turned on at iteration                ...         0
Damping before turning on DIIS             ...     0.500
Damping after turning on DIIS              ...     0.000
Pair specific amplitude update             ... OFF
Natural orbital iterations                 ... OFF
Perturbative natural orbital generation    ... OFF
Printlevel                                 ... 2

Memory handling:
----------------
Maximum memory for working arrays          ...    256 MB
Data storage in matrix containers          ... UNCOMPRESSED
Data type for integral storage             ... DOUBLE
In-Core Storage of quantities:
   Amplitudes+Sigma Vector      ... YES
   J+K operators                ... YES
   DIIS vectors                 ... YES
   3-external integrals         ... YES
   4-external integrals         ... YES


Initializing the integral package          ... done
Warning: reference  - re-canonicalizations have been set to INT 1 VIRT 1

--------------------------
CLOSED-SHELL FOCK OPERATOR
--------------------------

<ss|ss>:          666 b            0 skpd (  0.0%)    0.000 s ( 0.000 ms/b)
<ss|sp>:         1728 b            0 skpd (  0.0%)    0.001 s ( 0.000 ms/b)
<ss|sd>:          576 b            0 skpd (  0.0%)    0.000 s ( 0.001 ms/b)
<ss|pp>:          756 b            6 skpd (  0.8%)    0.000 s ( 0.000 ms/b)
<ss|pd>:          432 b            0 skpd (  0.0%)    0.000 s ( 0.001 ms/b)
<ss|dd>:          108 b            0 skpd (  0.0%)    0.000 s ( 0.001 ms/b)
<sp|sp>:         1176 b            3 skpd (  0.3%)    0.001 s ( 0.000 ms/b)
<sp|sd>:          768 b            0 skpd (  0.0%)    0.001 s ( 0.001 ms/b)
<sp|pp>:         1008 b           40 skpd (  4.0%)    0.001 s ( 0.001 ms/b)
<sp|pd>:          576 b            4 skpd (  0.7%)    0.001 s ( 0.002 ms/b)
<sp|dd>:          144 b            0 skpd (  0.0%)    0.000 s ( 0.002 ms/b)
<sd|sd>:          136 b            0 skpd (  0.0%)    0.000 s ( 0.002 ms/b)
<sd|pp>:          336 b           16 skpd (  4.8%)    0.001 s ( 0.002 ms/b)
<sd|pd>:          192 b            0 skpd (  0.0%)    0.001 s ( 0.003 ms/b)
<sd|dd>:           48 b            0 skpd (  0.0%)    0.000 s ( 0.005 ms/b)
<pp|pp>:          231 b           21 skpd (  9.1%)    0.000 s ( 0.002 ms/b)
<pp|pd>:          252 b           16 skpd (  6.3%)    0.001 s ( 0.004 ms/b)
<pp|dd>:           63 b            3 skpd (  4.8%)    0.000 s ( 0.006 ms/b)
<pd|pd>:           78 b            3 skpd (  3.8%)    0.001 s ( 0.008 ms/b)
<pd|dd>:           36 b            0 skpd (  0.0%)    0.000 s ( 0.013 ms/b)
<dd|dd>:            6 b            0 skpd (  0.0%)    0.000 s ( 0.026 ms/b)
Recanonicalizing the internal orbitals
Recanonicalizing the virtual orbitals
Time needed for Fock operator              ...            0.010 sec
Reference energy                           ...     -0.932713969

------------------------------
PARTIAL COULOMB TRANSFORMATION
------------------------------

Transformation type                        ... one-operator
Dimension of the basis                     ...   36
Number of internal MOs                     ...   36 (0-35)
Pair cutoff                                ... 0.000e+00 Eh
Number of AO pairs included in the trafo   ...  666
Total Number of distinct AO pairs          ...  666
Memory devoted for trafo                   ...  256.0 MB 
Max. Number of MO pairs treated together   ... 50382      
Max. Number of MOs treated per batch       ... 1399      
Number Format for Storage                  ... Double (8 Byte)
AO-integral source                         ... DIRECT
Integral package used                      ... LIBINT

Starting integral evaluation:
<ss|**>:         4896 b        0 skpd     0.002 s (  0.000 ms/b)
<sp|**>:         6528 b        0 skpd     0.005 s (  0.001 ms/b)
<sd|**>:         2176 b        0 skpd     0.003 s (  0.001 ms/b)
<pp|**>:         2856 b        0 skpd     0.005 s (  0.002 ms/b)
<pd|**>:         1632 b        0 skpd     0.005 s (  0.003 ms/b)
<dd|**>:          408 b        0 skpd     0.002 s (  0.005 ms/b)
Closing buffer AOJ ( 0.00 GB; CompressionRatio= 1.00)
Collecting buffer AOJ 
    ... done with AO integral generation
Number of MO pairs included in the trafo   ...  666
    ... Now sorting integrals
IBATCH = 1 of  1
Closing buffer JAO ( 0.00 GB; CompressionRatio= 1.00)
Collecting buffer JAO 
TOTAL TIME for half transformation         ...     0.032 sec
AO-integral generation                     ...     0.011 sec
Half transformation                        ...     0.011 sec
J-integral sorting                         ...     0.009 sec

-------------------------- SECOND HALF TRANSFORMATION -------------------------
Formation of (pq|rs)                       ... ok (     0.012 sec)
Integral sorting                           ... ok (     0.012 sec)

------------------
CLOSED SHELL GUESS
------------------

Initial guess performed in     0.000 sec
E(0)                                       ...     -0.932713969
E(MP2)                                     ...     -0.050511316
Initial E(tot)                             ...     -0.983225285
<T|T>                                      ...      0.051350477
Number of pairs included                   ... 1
Total number of pairs                      ... 1

---------------------------
RHF QUADRATIC CI ITERATIONS
---------------------------

Number of amplitudes to be optimized       ... 1260

Iter       E(tot)           E(Corr)          Delta-E          Residual     Time
  0     -0.983225285     -0.050511316      0.000000000      0.064949801    0.00
                           *** Turning on DIIS ***
  1     -0.995353607     -0.062639638     -0.012128322      0.048683229    0.00
  2     -1.008462235     -0.075748266     -0.013108627      0.028162310    0.00
  3     -1.022304048     -0.089590079     -0.013841813      0.003535830    0.00
  4     -1.023562478     -0.090848510     -0.001258431      0.000734998    0.00
  5     -1.023734382     -0.091020413     -0.000171904      0.000186248    0.00
  6     -1.023796413     -0.091082444     -0.000062030      0.000029966    0.00
  7     -1.023795944     -0.091081975      0.000000469      0.000008294    0.00
               --- The Quadratic CI iterations have converged ---

-------------------
QUADRATIC CI ENERGY
-------------------

E(0)                                       ...     -0.932713969
E(CORR)                                    ...     -0.091081975
E(TOT)                                     ...     -1.023795944
Singles Norm <S|S>**1/2                    ...      0.083392759  
T1 diagnostic                              ...      0.058967585  

------------------
LARGEST AMPLITUDES
------------------
   0->  1   0->  1       0.421500
   0->  1   0->  3       0.144616
   0->  3   0->  1       0.144616
   0->  9   0->  1       0.091614
   0->  1   0->  9       0.091614
   0-> 10  -1-> -1       0.064301
   0->  3   0->  3       0.050019
   0->  2  -1-> -1       0.045896
   0->  9   0->  3       0.032584
   0->  3   0->  9       0.032584
   0->  4   0->  4       0.029307
   0->  5   0->  5       0.029307
   0->  6   0->  6       0.023715
   0->  9   0->  9       0.023662
   0->  6  -1-> -1       0.023528
   0->  6   0->  2       0.013063


        !!!!!!!!!!!!!!!!!!!!!!!!!!!!!!!!!!!!!!!!!!!!!!!!!!!!!!!!!!!!!!!!!!!!!!!!!! 
        !  Warning: Densities are linearized densities !                         !
        !!!!!!!!!!!!!!!!!!!!!!!!!!!!!!!!!!!!!!!!!!!!!!!!!!!!!!!!!!!!!!!!!!!!!!!!!! 

Trace of internal density part =     -0.504168030
Trace of external density part =      0.504168030
----------------------
RHF TRIPLES CORRECTION (Algorithm 1)
----------------------

Multiplier for the singles contribution    ...      2.000000000

Triples Correction (T)                     ...      0.000000000
Scaling of triples based on CCSD energies (Peterson et al. Molecular Physics 113, 1551 (2015))
E(T*) = f*E(T) where f = E(F12-CCSD)/E(CCSD) 
f = CCSD (with F12)/ CCSD (without F12)    ...      1.000000000
Scaled triples correction (T)              ...      0.000000000

Final correlation energy                   ...     -0.091081975
E(QCISD)                                   ...     -1.023795944
E(QCISD(T))                                ...     -1.023795944

NORM  =      1.259038367 sqrt=     1.122068789
W(HF) =      0.794256971
------------------------------------------------------------------------------
                           ORCA POPULATION ANALYSIS
------------------------------------------------------------------------------
Input electron density              ... orca.mdcip
BaseName (.gbw .S,...)              ... orca


------------------------------------------------------------------------------- 
                                     TIMINGS                                   
------------------------------------------------------------------------------- 


Total execution time                   ...        0.184 sec

Fock Matrix Formation                  ...        0.010 sec (  5.7%)
Initial Guess                          ...        0.000 sec (  0.0%)
DIIS Solver                            ...        0.001 sec (  0.3%)
State Vector Update                    ...        0.000 sec (  0.0%)
Sigma-vector construction              ...        0.021 sec ( 11.2%)
  <D|H|D>(4-ext)                       ...        0.016 sec ( 79.6% of sigma)
  <S|H|D>(3-ext)                       ...        0.001 sec (  5.7% of sigma)
Total Time for computing (T)           ...        0.000 sec (  0.0% of ALL)


-------------------------   --------------------
FINAL SINGLE POINT ENERGY        -1.023795944101
-------------------------   --------------------

Storing actual gbw-file in orca.002.gbw ... done

                            ***************************************
                            *     ORCA property calculations      *
                            ***************************************

                                    ---------------------
                                    Active property flags
                                    ---------------------
   (+) Dipole Moment


------------------------------------------------------------------------------
                       ORCA ELECTRIC PROPERTIES CALCULATION
------------------------------------------------------------------------------

Dipole Moment Calculation                       ... on
Quadrupole Moment Calculation                   ... off
Polarizability Calculation                      ... off
GBWName                                         ... orca.gbw
Electron density file                           ... orca.scfp
The origin for moment calculation is the CENTER OF MASS  = ( 1.842483,  0.000000  0.000000)

-------------
DIPOLE MOMENT
-------------
                                X             Y             Z
Electronic contribution:      0.00000      -0.00000       0.00000
Nuclear contribution   :      0.00000       0.00000       0.00000
                        -----------------------------------------
Total Dipole Moment    :      0.00000      -0.00000       0.00000
                        -----------------------------------------
Magnitude (a.u.)       :      0.00000
Magnitude (Debye)      :      0.00000



--------------------
Rotational spectrum 
--------------------
 
Rotational constants in cm-1:     0.000000     8.796241     8.796241 
Rotational constants in MHz :     0.000000 263704.684517 263704.684517 

 Dipole components along the rotational axes: 
x,y,z [a.u.] :     0.000000    -0.000000     0.000000 
x,y,z [Debye]:     0.000000    -0.000000     0.000000 

 

                           *** MDCI DENSITY ***

------------------------------------------------------------------------------
                       ORCA ELECTRIC PROPERTIES CALCULATION
------------------------------------------------------------------------------

Dipole Moment Calculation                       ... on
Quadrupole Moment Calculation                   ... off
Polarizability Calculation                      ... off
GBWName                                         ... orca.gbw
Electron density file                           ... orca.mdcip
The origin for moment calculation is the CENTER OF MASS  = ( 1.842483,  0.000000  0.000000)

-------------
DIPOLE MOMENT
-------------
                                X             Y             Z
Electronic contribution:     -0.00000       0.00000      -0.00000
Nuclear contribution   :      0.00000       0.00000       0.00000
                        -----------------------------------------
Total Dipole Moment    :     -0.00000       0.00000      -0.00000
                        -----------------------------------------
Magnitude (a.u.)       :      0.00000
Magnitude (Debye)      :      0.00000



--------------------
Rotational spectrum 
--------------------
 
Rotational constants in cm-1:     0.000000     8.796241     8.796241 
Rotational constants in MHz :     0.000000 263704.684517 263704.684517 

 Dipole components along the rotational axes: 
x,y,z [a.u.] :    -0.000000     0.000000    -0.000000 
x,y,z [Debye]:    -0.000000     0.000000    -0.000000 

 

         *************************************************************
                                TRAJECTORY STEP   3
                  R  :   1.90000000
         *************************************************************
---------------------------------
CARTESIAN COORDINATES (ANGSTROEM)
---------------------------------
  H      0.000000    0.000000    0.000000
  H      1.900000    0.000000    0.000000

----------------------------
CARTESIAN COORDINATES (A.U.)
----------------------------
  NO LB      ZA    FRAG     MASS         X           Y           Z
   0 H     1.0000    0     1.008    0.000000    0.000000    0.000000
   1 H     1.0000    0     1.008    3.590480    0.000000    0.000000

--------------------------------
INTERNAL COORDINATES (ANGSTROEM)
--------------------------------
 H      0   0   0     0.000000000000     0.00000000     0.00000000
 H      1   0   0     1.900000000000     0.00000000     0.00000000

---------------------------
INTERNAL COORDINATES (A.U.)
---------------------------
 H      0   0   0     0.000000000000     0.00000000     0.00000000
 H      1   0   0     3.590479654450     0.00000000     0.00000000


Diagonalization of the overlap matrix:
Smallest eigenvalue                        ... 2.254e-02
Time for diagonalization                   ...    0.000 sec
Threshold for overlap eigenvalues          ... 1.000e-08
Number of eigenvalues below threshold      ... 0
Time for construction of square roots      ...    0.000 sec
Total time needed                          ...    0.001 sec

--------------
SCF ITERATIONS
--------------
ITER       Energy         Delta-E        Max-DP      RMS-DP      [F,P]     Damp
               ***  Starting incremental Fock matrix formation  ***
                      *** Initiating the SOSCF procedure ***
                      *** Re-Reading the Fockian *** 
                      *** Removing any level shift *** 
ITER      Energy       Delta-E        Grad      Rot      Max-DP    RMS-DP
  0     -0.93962913  -0.9396291267  0.002217  0.002217  0.001712  0.000124
               *** Restarting incremental Fock matrix formation ***
  1     -0.93965315  -0.0000240246  0.000818  0.001294  0.000976  0.000066
  2     -0.93965737  -0.0000042147  0.000185  0.000508  0.000308  0.000023
                 **** Energy Check signals convergence ****
              ***Rediagonalizing the Fockian in SOSCF/NRSCF***

               *****************************************************
               *                     SUCCESS                       *
               *           SCF CONVERGED AFTER   3 CYCLES          *
               *****************************************************

Total Energy       :           -0.93965765 Eh             -25.56938 eV
  Last Energy change         ...   -2.8405e-07  Tolerance :   1.0000e-06
  Last MAX-Density change    ...    4.6948e-05  Tolerance :   1.0000e-05
             **** THE GBW FILE WAS UPDATED (orca.gbw) ****
             **** DENSITY FILE WAS UPDATED (orca.scfp) ****
             **** ENERGY FILE WAS UPDATED (orca.en.tmp) ****
             **** THE GBW FILE WAS UPDATED (orca.gbw) ****
             **** DENSITY FILE WAS UPDATED (orca.scfp) ****
Total SCF time: 0 days 0 hours 0 min 0 sec 


------------------------------------------------------------------------------- 
                              ORCA-MATRIX DRIVEN CI                            
------------------------------------------------------------------------------- 

--------------------------------
AUTOMATIC CHOICE OF INCORE LEVEL
--------------------------------

Memory available                           ...    256.00 MB
Memory needed for S+T                      ...      0.02 MB
Memory needed for J+K                      ...      0.06 MB
Memory needed for DIIS                     ...      0.26 MB
Memory needed for 3-ext                    ...      0.33 MB
Memory needed for 4-ext                    ...      5.89 MB
Memory needed for triples                  ...      1.64 MB
 -> Final InCoreLevel    ... 5
 -> check shows that triples correction can be computed


Wavefunction type
-----------------
Correlation treatment                      ...     QCISD     
Single excitations                         ... ON
Orbital optimization                       ... OFF
Calculation of Z vector                    ... OFF
Calculation of Brueckner orbitals          ... OFF
Perturbative triple excitations            ... ON
Calculation of F12 correction              ... OFF
Frozen core treatment                      ... chemical core (0 el)
Reference Wavefunction                     ... RHF
  Internal Orbitals:     0 ...    0 (  1 MO's/  2 electrons)
  Virtual  Orbitals:     1 ...   35 ( 35 MO's              )
Number of AO's                             ...     36
Number of electrons                        ...      2
Number of correlated electrons             ...      2

Algorithmic settings
--------------------
Integral transformation                    ... AO direct full transformation
K(C) Formation                             ... FULL-MO TRAFO
Maximum number of iterations               ...        50
Convergence tolerance (max. residuum)      ... 2.500e-05
Level shift for amplitude update           ... 2.000e-01
Maximum number of DIIS vectors             ...         7
DIIS turned on at iteration                ...         0
Damping before turning on DIIS             ...     0.500
Damping after turning on DIIS              ...     0.000
Pair specific amplitude update             ... OFF
Natural orbital iterations                 ... OFF
Perturbative natural orbital generation    ... OFF
Printlevel                                 ... 2

Memory handling:
----------------
Maximum memory for working arrays          ...    256 MB
Data storage in matrix containers          ... UNCOMPRESSED
Data type for integral storage             ... DOUBLE
In-Core Storage of quantities:
   Amplitudes+Sigma Vector      ... YES
   J+K operators                ... YES
   DIIS vectors                 ... YES
   3-external integrals         ... YES
   4-external integrals         ... YES


Initializing the integral package          ... done
Warning: reference  - re-canonicalizations have been set to INT 1 VIRT 1

--------------------------
CLOSED-SHELL FOCK OPERATOR
--------------------------

<ss|ss>:          666 b            0 skpd (  0.0%)    0.000 s ( 0.000 ms/b)
<ss|sp>:         1728 b            0 skpd (  0.0%)    0.001 s ( 0.000 ms/b)
<ss|sd>:          576 b            0 skpd (  0.0%)    0.000 s ( 0.001 ms/b)
<ss|pp>:          756 b            1 skpd (  0.1%)    0.000 s ( 0.000 ms/b)
<ss|pd>:          432 b            0 skpd (  0.0%)    0.000 s ( 0.001 ms/b)
<ss|dd>:          108 b            0 skpd (  0.0%)    0.000 s ( 0.001 ms/b)
<sp|sp>:         1176 b            0 skpd (  0.0%)    0.001 s ( 0.000 ms/b)
<sp|sd>:          768 b            0 skpd (  0.0%)    0.001 s ( 0.001 ms/b)
<sp|pp>:         1008 b           30 skpd (  3.0%)    0.001 s ( 0.001 ms/b)
<sp|pd>:          576 b            4 skpd (  0.7%)    0.001 s ( 0.002 ms/b)
<sp|dd>:          144 b            0 skpd (  0.0%)    0.000 s ( 0.002 ms/b)
<sd|sd>:          136 b            0 skpd (  0.0%)    0.000 s ( 0.001 ms/b)
<sd|pp>:          336 b           16 skpd (  4.8%)    0.001 s ( 0.002 ms/b)
<sd|pd>:          192 b            0 skpd (  0.0%)    0.001 s ( 0.003 ms/b)
<sd|dd>:           48 b            0 skpd (  0.0%)    0.000 s ( 0.005 ms/b)
<pp|pp>:          231 b           18 skpd (  7.8%)    0.000 s ( 0.002 ms/b)
<pp|pd>:          252 b           12 skpd (  4.8%)    0.001 s ( 0.004 ms/b)
<pp|dd>:           63 b            3 skpd (  4.8%)    0.000 s ( 0.006 ms/b)
<pd|pd>:           78 b            3 skpd (  3.8%)    0.001 s ( 0.008 ms/b)
<pd|dd>:           36 b            0 skpd (  0.0%)    0.000 s ( 0.013 ms/b)
<dd|dd>:            6 b            0 skpd (  0.0%)    0.000 s ( 0.027 ms/b)
Recanonicalizing the internal orbitals
Recanonicalizing the virtual orbitals
Time needed for Fock operator              ...            0.011 sec
Reference energy                           ...     -0.939657652

------------------------------
PARTIAL COULOMB TRANSFORMATION
------------------------------

Transformation type                        ... one-operator
Dimension of the basis                     ...   36
Number of internal MOs                     ...   36 (0-35)
Pair cutoff                                ... 0.000e+00 Eh
Number of AO pairs included in the trafo   ...  666
Total Number of distinct AO pairs          ...  666
Memory devoted for trafo                   ...  256.0 MB 
Max. Number of MO pairs treated together   ... 50382      
Max. Number of MOs treated per batch       ... 1399      
Number Format for Storage                  ... Double (8 Byte)
AO-integral source                         ... DIRECT
Integral package used                      ... LIBINT

Starting integral evaluation:
<ss|**>:         4896 b        0 skpd     0.002 s (  0.000 ms/b)
<sp|**>:         6528 b        0 skpd     0.005 s (  0.001 ms/b)
<sd|**>:         2176 b        0 skpd     0.003 s (  0.001 ms/b)
<pp|**>:         2856 b        0 skpd     0.005 s (  0.002 ms/b)
<pd|**>:         1632 b        0 skpd     0.005 s (  0.003 ms/b)
<dd|**>:          408 b        0 skpd     0.002 s (  0.005 ms/b)
Closing buffer AOJ ( 0.00 GB; CompressionRatio= 1.00)
Collecting buffer AOJ 
    ... done with AO integral generation
Number of MO pairs included in the trafo   ...  666
    ... Now sorting integrals
IBATCH = 1 of  1
Closing buffer JAO ( 0.00 GB; CompressionRatio= 1.00)
Collecting buffer JAO 
TOTAL TIME for half transformation         ...     0.032 sec
AO-integral generation                     ...     0.011 sec
Half transformation                        ...     0.011 sec
J-integral sorting                         ...     0.010 sec

-------------------------- SECOND HALF TRANSFORMATION -------------------------
Formation of (pq|rs)                       ... ok (     0.011 sec)
Integral sorting                           ... ok (     0.012 sec)

------------------
CLOSED SHELL GUESS
------------------

Initial guess performed in     0.000 sec
E(0)                                       ...     -0.939657652
E(MP2)                                     ...     -0.049092920
Initial E(tot)                             ...     -0.988750572
<T|T>                                      ...      0.047967036
Number of pairs included                   ... 1
Total number of pairs                      ... 1

---------------------------
RHF QUADRATIC CI ITERATIONS
---------------------------

Number of amplitudes to be optimized       ... 1260

Iter       E(tot)           E(Corr)          Delta-E          Residual     Time
  0     -0.988750572     -0.049092920      0.000000000      0.062515577    0.00
                           *** Turning on DIIS ***
  1     -1.000417979     -0.060760328     -0.011667407      0.046418419    0.00
  2     -1.012911731     -0.073254080     -0.012493752      0.026490117    0.00
  3     -1.025537444     -0.085879792     -0.012625713      0.003646696    0.00
  4     -1.026796479     -0.087138827     -0.001259035      0.000763208    0.00
  5     -1.026968644     -0.087310992     -0.000172165      0.000186282    0.00
  6     -1.027024016     -0.087366365     -0.000055372      0.000027772    0.00
  7     -1.027025078     -0.087367427     -0.000001062      0.000008626    0.00
               --- The Quadratic CI iterations have converged ---

-------------------
QUADRATIC CI ENERGY
-------------------

E(0)                                       ...     -0.939657652
E(CORR)                                    ...     -0.087367427
E(TOT)                                     ...     -1.027025078
Singles Norm <S|S>**1/2                    ...      0.078462143  
T1 diagnostic                              ...      0.055481113  

------------------
LARGEST AMPLITUDES
------------------
   0->  1   0->  1       0.394930
   0->  3   0->  1       0.143593
   0->  1   0->  3       0.143593
   0->  1   0->  9       0.090186
   0->  9   0->  1       0.090186
   0-> 10  -1-> -1       0.061150
   0->  3   0->  3       0.052664
   0->  2  -1-> -1       0.042836
   0->  3   0->  9       0.034057
   0->  9   0->  3       0.034057
   0->  5   0->  5       0.030431
   0->  4   0->  4       0.030431
   0->  9   0->  9       0.024654
   0->  6   0->  6       0.023998
   0->  6  -1-> -1       0.020491
   0->  2   0->  6       0.013208


        !!!!!!!!!!!!!!!!!!!!!!!!!!!!!!!!!!!!!!!!!!!!!!!!!!!!!!!!!!!!!!!!!!!!!!!!!! 
        !  Warning: Densities are linearized densities !                         !
        !!!!!!!!!!!!!!!!!!!!!!!!!!!!!!!!!!!!!!!!!!!!!!!!!!!!!!!!!!!!!!!!!!!!!!!!!! 

Trace of internal density part =     -0.458669572
Trace of external density part =      0.458669572
----------------------
RHF TRIPLES CORRECTION (Algorithm 1)
----------------------

Multiplier for the singles contribution    ...      2.000000000

Triples Correction (T)                     ...      0.000000000
Scaling of triples based on CCSD energies (Peterson et al. Molecular Physics 113, 1551 (2015))
E(T*) = f*E(T) where f = E(F12-CCSD)/E(CCSD) 
f = CCSD (with F12)/ CCSD (without F12)    ...      1.000000000
Scaled triples correction (T)              ...      0.000000000

Final correlation energy                   ...     -0.087367427
E(QCISD)                                   ...     -1.027025078
E(QCISD(T))                                ...     -1.027025078

NORM  =      1.235491094 sqrt=     1.111526470
W(HF) =      0.809394746
------------------------------------------------------------------------------
                           ORCA POPULATION ANALYSIS
------------------------------------------------------------------------------
Input electron density              ... orca.mdcip
BaseName (.gbw .S,...)              ... orca


------------------------------------------------------------------------------- 
                                     TIMINGS                                   
------------------------------------------------------------------------------- 


Total execution time                   ...        0.186 sec

Fock Matrix Formation                  ...        0.011 sec (  5.7%)
Initial Guess                          ...        0.000 sec (  0.0%)
DIIS Solver                            ...        0.000 sec (  0.3%)
State Vector Update                    ...        0.000 sec (  0.0%)
Sigma-vector construction              ...        0.021 sec ( 11.2%)
  <D|H|D>(4-ext)                       ...        0.017 sec ( 79.6% of sigma)
  <S|H|D>(3-ext)                       ...        0.001 sec (  5.6% of sigma)
Total Time for computing (T)           ...        0.000 sec (  0.0% of ALL)


-------------------------   --------------------
FINAL SINGLE POINT ENERGY        -1.027025078421
-------------------------   --------------------

Storing actual gbw-file in orca.003.gbw ... done

                            ***************************************
                            *     ORCA property calculations      *
                            ***************************************

                                    ---------------------
                                    Active property flags
                                    ---------------------
   (+) Dipole Moment


------------------------------------------------------------------------------
                       ORCA ELECTRIC PROPERTIES CALCULATION
------------------------------------------------------------------------------

Dipole Moment Calculation                       ... on
Quadrupole Moment Calculation                   ... off
Polarizability Calculation                      ... off
GBWName                                         ... orca.gbw
Electron density file                           ... orca.scfp
The origin for moment calculation is the CENTER OF MASS  = ( 1.795240,  0.000000  0.000000)

-------------
DIPOLE MOMENT
-------------
                                X             Y             Z
Electronic contribution:      0.00000      -0.00000       0.00000
Nuclear contribution   :      0.00000       0.00000       0.00000
                        -----------------------------------------
Total Dipole Moment    :      0.00000      -0.00000       0.00000
                        -----------------------------------------
Magnitude (a.u.)       :      0.00000
Magnitude (Debye)      :      0.00000



--------------------
Rotational spectrum 
--------------------
 
Rotational constants in cm-1:     0.000000     9.265293     9.265293 
Rotational constants in MHz :     0.000000 277766.499411 277766.499411 

 Dipole components along the rotational axes: 
x,y,z [a.u.] :     0.000000    -0.000000     0.000000 
x,y,z [Debye]:     0.000000    -0.000000     0.000000 

 

                           *** MDCI DENSITY ***

------------------------------------------------------------------------------
                       ORCA ELECTRIC PROPERTIES CALCULATION
------------------------------------------------------------------------------

Dipole Moment Calculation                       ... on
Quadrupole Moment Calculation                   ... off
Polarizability Calculation                      ... off
GBWName                                         ... orca.gbw
Electron density file                           ... orca.mdcip
The origin for moment calculation is the CENTER OF MASS  = ( 1.795240,  0.000000  0.000000)

-------------
DIPOLE MOMENT
-------------
                                X             Y             Z
Electronic contribution:     -0.00000       0.00000      -0.00000
Nuclear contribution   :      0.00000       0.00000       0.00000
                        -----------------------------------------
Total Dipole Moment    :     -0.00000       0.00000      -0.00000
                        -----------------------------------------
Magnitude (a.u.)       :      0.00000
Magnitude (Debye)      :      0.00000



--------------------
Rotational spectrum 
--------------------
 
Rotational constants in cm-1:     0.000000     9.265293     9.265293 
Rotational constants in MHz :     0.000000 277766.499411 277766.499411 

 Dipole components along the rotational axes: 
x,y,z [a.u.] :    -0.000000     0.000000    -0.000000 
x,y,z [Debye]:    -0.000000     0.000000    -0.000000 

 

         *************************************************************
                                TRAJECTORY STEP   4
                  R  :   1.85000000
         *************************************************************
---------------------------------
CARTESIAN COORDINATES (ANGSTROEM)
---------------------------------
  H      0.000000    0.000000    0.000000
  H      1.850000    0.000000    0.000000

----------------------------
CARTESIAN COORDINATES (A.U.)
----------------------------
  NO LB      ZA    FRAG     MASS         X           Y           Z
   0 H     1.0000    0     1.008    0.000000    0.000000    0.000000
   1 H     1.0000    0     1.008    3.495993    0.000000    0.000000

--------------------------------
INTERNAL COORDINATES (ANGSTROEM)
--------------------------------
 H      0   0   0     0.000000000000     0.00000000     0.00000000
 H      1   0   0     1.850000000000     0.00000000     0.00000000

---------------------------
INTERNAL COORDINATES (A.U.)
---------------------------
 H      0   0   0     0.000000000000     0.00000000     0.00000000
 H      1   0   0     3.495993347754     0.00000000     0.00000000


Diagonalization of the overlap matrix:
Smallest eigenvalue                        ... 2.132e-02
Time for diagonalization                   ...    0.000 sec
Threshold for overlap eigenvalues          ... 1.000e-08
Number of eigenvalues below threshold      ... 0
Time for construction of square roots      ...    0.000 sec
Total time needed                          ...    0.001 sec

--------------
SCF ITERATIONS
--------------
ITER       Energy         Delta-E        Max-DP      RMS-DP      [F,P]     Damp
[...]

------------------------------
PARTIAL COULOMB TRANSFORMATION
------------------------------

Transformation type                        ... one-operator
Dimension of the basis                     ...   36
Number of internal MOs                     ...   36 (0-35)
Pair cutoff                                ... 0.000e+00 Eh
Number of AO pairs included in the trafo   ...  666
Total Number of distinct AO pairs          ...  666
Memory devoted for trafo                   ...  256.0 MB 
Max. Number of MO pairs treated together   ... 50382      
Max. Number of MOs treated per batch       ... 1399      
Number Format for Storage                  ... Double (8 Byte)
AO-integral source                         ... DIRECT
Integral package used                      ... LIBINT

Starting integral evaluation:
<ss|**>:         4896 b        0 skpd     0.002 s (  0.000 ms/b)
<sp|**>:         6528 b        0 skpd     0.005 s (  0.001 ms/b)
<sd|**>:         2176 b        0 skpd     0.003 s (  0.001 ms/b)
<pp|**>:         2856 b        0 skpd     0.005 s (  0.002 ms/b)
<pd|**>:         1632 b        0 skpd     0.005 s (  0.003 ms/b)
<dd|**>:          408 b        0 skpd     0.002 s (  0.004 ms/b)
Closing buffer AOJ ( 0.00 GB; CompressionRatio= 1.00)
Collecting buffer AOJ 
    ... done with AO integral generation
Number of MO pairs included in the trafo   ...  666
    ... Now sorting integrals
IBATCH = 1 of  1
Closing buffer JAO ( 0.00 GB; CompressionRatio= 1.00)
Collecting buffer JAO 
TOTAL TIME for half transformation         ...     0.030 sec
AO-integral generation                     ...     0.010 sec
Half transformation                        ...     0.011 sec
J-integral sorting                         ...     0.009 sec

-------------------------- SECOND HALF TRANSFORMATION -------------------------
Formation of (pq|rs)                       ... ok (     0.010 sec)
Integral sorting                           ... ok (     0.008 sec)

------------------
CLOSED SHELL GUESS
------------------

Initial guess performed in     0.000 sec
E(0)                                       ...     -0.941204477
E(MP2)                                     ...     -0.031704793
Initial E(tot)                             ...     -0.972909270
<T|T>                                      ...      0.007153828
Number of pairs included                   ... 1
Total number of pairs                      ... 1

---------------------------
RHF QUADRATIC CI ITERATIONS
---------------------------

Number of amplitudes to be optimized       ... 1260

Iter       E(tot)           E(Corr)          Delta-E          Residual     Time
  0     -0.972909270     -0.031704793      0.000000000      0.017796040    0.00
                           *** Turning on DIIS ***
  1     -0.977230223     -0.036025746     -0.004320953      0.005078766    0.00
  2     -0.978815561     -0.037611084     -0.001585337      0.000481865    0.00
  3     -0.978904014     -0.037699537     -0.000088453      0.000112816    0.00
  4     -0.978911983     -0.037707506     -0.000007969      0.000026938    0.00
  5     -0.978912641     -0.037708164     -0.000000658      0.000005993    0.00
               --- The Quadratic CI iterations have converged ---

-------------------
QUADRATIC CI ENERGY
-------------------

E(0)                                       ...     -0.941204477
E(CORR)                                    ...     -0.037708164
E(TOT)                                     ...     -0.978912641
Singles Norm <S|S>**1/2                    ...      0.002061382  
T1 diagnostic                              ...      0.001457617  

------------------
LARGEST AMPLITUDES
------------------
   0->  6   0->  6       0.029544
   0-> 14   0-> 14       0.026651
   0-> 13   0-> 13       0.024288
   0-> 12   0-> 12       0.024288
   0->  6   0-> 14       0.023694
   0-> 14   0->  6       0.023694
   0->  9   0->  9       0.021628
   0->  4   0->  4       0.021105
   0->  5   0->  5       0.021105
   0->  9   0-> 11       0.019211
   0-> 11   0->  9       0.019211
   0-> 11   0-> 11       0.019095
   0-> 12   0->  4       0.018449
   0->  4   0-> 12       0.018449
   0->  5   0-> 13       0.018449
   0-> 13   0->  5       0.018449


        !!!!!!!!!!!!!!!!!!!!!!!!!!!!!!!!!!!!!!!!!!!!!!!!!!!!!!!!!!!!!!!!!!!!!!!!!! 
        !  Warning: Densities are linearized densities !                         !
        !!!!!!!!!!!!!!!!!!!!!!!!!!!!!!!!!!!!!!!!!!!!!!!!!!!!!!!!!!!!!!!!!!!!!!!!!! 

Trace of internal density part =     -0.022197432
Trace of external density part =      0.022197432
----------------------
RHF TRIPLES CORRECTION (Algorithm 1)
----------------------

Multiplier for the singles contribution    ...      2.000000000

Triples Correction (T)                     ...      0.000000000
Scaling of triples based on CCSD energies (Peterson et al. Molecular Physics 113, 1551 (2015))
E(T*) = f*E(T) where f = E(F12-CCSD)/E(CCSD) 
f = CCSD (with F12)/ CCSD (without F12)    ...      1.000000000
Scaled triples correction (T)              ...      0.000000000

Final correlation energy                   ...     -0.037708164
E(QCISD)                                   ...     -0.978912641
E(QCISD(T))                                ...     -0.978912641

NORM  =      1.011102966 sqrt=     1.005536158
W(HF) =      0.989018957
------------------------------------------------------------------------------
                           ORCA POPULATION ANALYSIS
------------------------------------------------------------------------------
Input electron density              ... orca.mdcip
BaseName (.gbw .S,...)              ... orca


------------------------------------------------------------------------------- 
                                     TIMINGS                                   
------------------------------------------------------------------------------- 


Total execution time                   ...        0.210 sec

Fock Matrix Formation                  ...        0.010 sec (  4.8%)
Initial Guess                          ...        0.000 sec (  0.0%)
DIIS Solver                            ...        0.000 sec (  0.1%)
State Vector Update                    ...        0.000 sec (  0.0%)
Sigma-vector construction              ...        0.014 sec (  6.6%)
  <D|H|D>(4-ext)                       ...        0.011 sec ( 79.8% of sigma)
Total Time for computing (T)           ...        0.000 sec (  0.0% of ALL)


-------------------------   --------------------
FINAL SINGLE POINT ENERGY        -0.978912641056
-------------------------   --------------------

Storing actual gbw-file in orca.033.gbw ... done

                            ***************************************
                            *     ORCA property calculations      *
                            ***************************************

                                    ---------------------
                                    Active property flags
                                    ---------------------
   (+) Dipole Moment


------------------------------------------------------------------------------
                       ORCA ELECTRIC PROPERTIES CALCULATION
------------------------------------------------------------------------------

Dipole Moment Calculation                       ... on
Quadrupole Moment Calculation                   ... off
Polarizability Calculation                      ... off
GBWName                                         ... orca.gbw
Electron density file                           ... orca.scfp
The origin for moment calculation is the CENTER OF MASS  = ( 0.377945,  0.000000  0.000000)

-------------
DIPOLE MOMENT
-------------
                                X             Y             Z
Electronic contribution:      0.00000      -0.00000       0.00000
Nuclear contribution   :      0.00000       0.00000       0.00000
                        -----------------------------------------
Total Dipole Moment    :      0.00000      -0.00000       0.00000
                        -----------------------------------------
Magnitude (a.u.)       :      0.00000
Magnitude (Debye)      :      0.00000



--------------------
Rotational spectrum 
--------------------
 
Rotational constants in cm-1:     0.000000   209.048176   209.048176 
Rotational constants in MHz :     0.000000 6267106.642963 6267106.642963 

 Dipole components along the rotational axes: 
x,y,z [a.u.] :     0.000000    -0.000000     0.000000 
x,y,z [Debye]:     0.000000    -0.000000     0.000000 

 

                           *** MDCI DENSITY ***

------------------------------------------------------------------------------
                       ORCA ELECTRIC PROPERTIES CALCULATION
------------------------------------------------------------------------------

Dipole Moment Calculation                       ... on
Quadrupole Moment Calculation                   ... off
Polarizability Calculation                      ... off
GBWName                                         ... orca.gbw
Electron density file                           ... orca.mdcip
The origin for moment calculation is the CENTER OF MASS  = ( 0.377945,  0.000000  0.000000)

-------------
DIPOLE MOMENT
-------------
                                X             Y             Z
Electronic contribution:      0.00000      -0.00000      -0.00000
Nuclear contribution   :      0.00000       0.00000       0.00000
                        -----------------------------------------
Total Dipole Moment    :      0.00000      -0.00000      -0.00000
                        -----------------------------------------
Magnitude (a.u.)       :      0.00000
Magnitude (Debye)      :      0.00000



--------------------
Rotational spectrum 
--------------------
 
Rotational constants in cm-1:     0.000000   209.048176   209.048176 
Rotational constants in MHz :     0.000000 6267106.642963 6267106.642963 

 Dipole components along the rotational axes: 
x,y,z [a.u.] :     0.000000    -0.000000    -0.000000 
x,y,z [Debye]:     0.000000    -0.000000    -0.000000 

 
                              **** TRAJECTORY DONE ***

                         SUMMARY OF THE CALCULATED SURFACE

------------------
TRAJECTORY RESULTS
------------------

Column   1: R

The Calculated Surface using the 'Actual Energy'
   2.00000000  -1.02089421
   1.95000000  -1.02379594
   1.90000000  -1.02702508
   1.85000000  -1.03060259
   1.80000000  -1.03454758
   1.75000000  -1.03887665
   1.70000000  -1.04360336
   1.65000000  -1.04873777
   1.60000000  -1.05428584
   1.55000000  -1.06024899
   1.50000000  -1.06662098
   1.45000000  -1.07339688
   1.40000000  -1.08055690
   1.35000000  -1.08807572
   1.30000000  -1.09591832
   1.25000000  -1.10403812
   1.20000000  -1.11237451
   1.15000000  -1.12084939
   1.10000000  -1.12936252
   1.05000000  -1.13778513
   1.00000000  -1.14595128
   0.95000000  -1.15364421
   0.90000000  -1.16058412
   0.85000000  -1.16639588
   0.80000000  -1.17058528
   0.75000000  -1.17249514
   0.70000000  -1.17124064
   0.65000000  -1.16561090
   0.60000000  -1.15392140
   0.55000000  -1.13378873
   0.50000000  -1.10177156
   0.45000000  -1.05276328
   0.40000000  -0.97891264

                        *******************************
                        *   FIT OF THE ACT-ENERGY PES *
                        *******************************
-------------------------------
POTENTIAL ENERGY SURFACE =   0
-------------------------------

Minimum found after 19 iterations
Equilibrium distance and its energy from the interpolated PES:
  Re      =   0.74223 Angstroem  (  1.40262 Bohr)
  E(Re)   =    -1.172534 Eh 
  dE/dR   = -3.034e-09 (1.348e-02 CHEB)
  d2E/dR2 =    0.369261 (   0.399989 CHEB) (   0.480526 NUM)
  d3E/dR3 =   -1.387240 (  27.989754 CHEB)

Spectroscopic constants:
  we =    4417.6 cm**-1 (based on SPLINE)
  we =    4597.7 cm**-1 (based on CHEB)
  we =    5039.4 cm**-1 (based on NUM)

Performing Morse fit ...
Morse-Fit Results:
 Te(adiabatic)   = 5095937.4 cm**-1         =631.816 eV
 d2E/dR**2 (Morse)= -10178.712014897 
 d3E/dR**3 (Morse)= 452803.716322115 
 d4E/dR**4 (Morse)= -15666885.473059168 
 E0               =     22.046265243 Eh  RMS=1.01e-01
 Re               =   0.18846 Angstroem      =  0.35613 Bohr RMS=8.67e-04)
 De(Morse)        = -629.82755 eV             =-5079902.3 cm**-1 RMS=1.01e-01
 D0(Morse)        =      -nan eV
 beta             =  14.82845 au          RMS=4.18e-02
 we               =     -nan cm**-1
 wexe             =  26459.1 cm**-1
 Displacement   =   -0.5538 Angstroem      = -1.04648 Bohr

The Calculated Surface using the SCF energy
   2.00000000  -0.92601923
   1.95000000  -0.93271397
   1.90000000  -0.93965765
   1.85000000  -0.94685599
   1.80000000  -0.95431399
   1.75000000  -0.96203571
   1.70000000  -0.97002382
   1.65000000  -0.97827921
   1.60000000  -0.98680047
   1.55000000  -0.99558330
   1.50000000  -1.00461993
   1.45000000  -1.01389830
   1.40000000  -1.02340111
   1.35000000  -1.03310457
   1.30000000  -1.04297667
   1.25000000  -1.05297502
   1.20000000  -1.06304385
   1.15000000  -1.07311014
   1.10000000  -1.08307842
   1.05000000  -1.09282405
   1.00000000  -1.10218422
   0.95000000  -1.11094603
   0.90000000  -1.11883038
   0.85000000  -1.12546990
   0.80000000  -1.13037795
   0.75000000  -1.13290417
   0.70000000  -1.13216912
   0.65000000  -1.12696681
   0.60000000  -1.11561786
   0.55000000  -1.09574417
   0.50000000  -1.06390950
   0.45000000  -1.01501254
   0.40000000  -0.94120447

                        *******************************
                        *       FIT OF THE SCF PES    *
                        *******************************
-------------------------------
POTENTIAL ENERGY SURFACE =   0
-------------------------------

Minimum found after 14 iterations
Equilibrium distance and its energy from the interpolated PES:
  Re      =   0.73431 Angstroem  (  1.38765 Bohr)
  E(Re)   =    -1.133074 Eh 
  dE/dR   = -6.224e-09 (1.308e-02 CHEB)
  d2E/dR2 =    0.400706 (   0.435224 CHEB) (   0.514527 NUM)
  d3E/dR3 =   -1.381423 (  29.472704 CHEB)

Spectroscopic constants:
  we =    4601.9 cm**-1 (based on SPLINE)
  we =    4796.0 cm**-1 (based on CHEB)
  we =    5214.6 cm**-1 (based on NUM)

Performing Morse fit ...
Morse-Fit Results:
 Te(adiabatic)   = 4709438.4 cm**-1         =583.896 eV
 d2E/dR**2 (Morse)= -17188.808870258 
 d3E/dR**3 (Morse)= 1034187.925447359 
 d4E/dR**4 (Morse)= -48395911.500704460 
 E0               =     20.324705840 Eh  RMS=6.19e-02
 Re               =   0.24082 Angstroem      =  0.45508 Bohr RMS=5.44e-04)
 De(Morse)        = -581.43552 eV             =-4689594.2 cm**-1 RMS=6.19e-02
 D0(Morse)        =      -nan eV
 beta             =  20.05545 au          RMS=4.32e-02
 we               =     -nan cm**-1
 wexe             =  48400.3 cm**-1
 Displacement   =   -0.4935 Angstroem      = -0.93256 Bohr

The Calculated Surface using the MDCI energy
   2.00000000  -1.02089421
   1.95000000  -1.02379594
   1.90000000  -1.02702508
   1.85000000  -1.03060259
   1.80000000  -1.03454758
   1.75000000  -1.03887665
   1.70000000  -1.04360336
   1.65000000  -1.04873777
   1.60000000  -1.05428584
   1.55000000  -1.06024899
   1.50000000  -1.06662098
   1.45000000  -1.07339688
   1.40000000  -1.08055690
   1.35000000  -1.08807572
   1.30000000  -1.09591832
   1.25000000  -1.10403812
   1.20000000  -1.11237451
   1.15000000  -1.12084939
   1.10000000  -1.12936252
   1.05000000  -1.13778513
   1.00000000  -1.14595128
   0.95000000  -1.15364421
   0.90000000  -1.16058412
   0.85000000  -1.16639588
   0.80000000  -1.17058528
   0.75000000  -1.17249514
   0.70000000  -1.17124064
   0.65000000  -1.16561090
   0.60000000  -1.15392140
   0.55000000  -1.13378873
   0.50000000  -1.10177156
   0.45000000  -1.05276328
   0.40000000  -0.97891264

                        *******************************
                        *      FIT OF THE MDCI PES    *
                        *******************************
-------------------------------
POTENTIAL ENERGY SURFACE =   0
-------------------------------

Minimum found after 19 iterations
Equilibrium distance and its energy from the interpolated PES:
  Re      =   0.74223 Angstroem  (  1.40262 Bohr)
  E(Re)   =    -1.172534 Eh 
  dE/dR   = -3.034e-09 (1.348e-02 CHEB)
  d2E/dR2 =    0.369261 (   0.399989 CHEB) (   0.480526 NUM)
  d3E/dR3 =   -1.387240 (  27.989754 CHEB)

Spectroscopic constants:
  we =    4417.6 cm**-1 (based on SPLINE)
  we =    4597.7 cm**-1 (based on CHEB)
  we =    5039.4 cm**-1 (based on NUM)

Performing Morse fit ...
Morse-Fit Results:
 Te(adiabatic)   = 5095937.4 cm**-1         =631.816 eV
 d2E/dR**2 (Morse)= -10178.712014897 
 d3E/dR**3 (Morse)= 452803.716322115 
 d4E/dR**4 (Morse)= -15666885.473059168 
 E0               =     22.046265243 Eh  RMS=1.01e-01
 Re               =   0.18846 Angstroem      =  0.35613 Bohr RMS=8.67e-04)
 De(Morse)        = -629.82755 eV             =-5079902.3 cm**-1 RMS=1.01e-01
 D0(Morse)        =      -nan eV
 beta             =  14.82845 au          RMS=4.18e-02
 we               =     -nan cm**-1
 wexe             =  26459.1 cm**-1
 Displacement   =   -0.5538 Angstroem      = -1.04648 Bohr

The Calculated Surface using the MDCI energy minus triple correction
   2.00000000  -1.02089421
   1.95000000  -1.02379594
   1.90000000  -1.02702508
   1.85000000  -1.03060259
   1.80000000  -1.03454758
   1.75000000  -1.03887665
   1.70000000  -1.04360336
   1.65000000  -1.04873777
   1.60000000  -1.05428584
   1.55000000  -1.06024899
   1.50000000  -1.06662098
   1.45000000  -1.07339688
   1.40000000  -1.08055690
   1.35000000  -1.08807572
   1.30000000  -1.09591832
   1.25000000  -1.10403812
   1.20000000  -1.11237451
   1.15000000  -1.12084939
   1.10000000  -1.12936252
   1.05000000  -1.13778513
   1.00000000  -1.14595128
   0.95000000  -1.15364421
   0.90000000  -1.16058412
   0.85000000  -1.16639588
   0.80000000  -1.17058528
   0.75000000  -1.17249514
   0.70000000  -1.17124064
   0.65000000  -1.16561090
   0.60000000  -1.15392140
   0.55000000  -1.13378873
   0.50000000  -1.10177156
   0.45000000  -1.05276328
   0.40000000  -0.97891264

                        *******************************
                        *      FIT OF THE MDCI1 PES   *
                        *******************************
-------------------------------
POTENTIAL ENERGY SURFACE =   0
-------------------------------

Minimum found after 19 iterations
Equilibrium distance and its energy from the interpolated PES:
  Re      =   0.74223 Angstroem  (  1.40262 Bohr)
  E(Re)   =    -1.172534 Eh 
  dE/dR   = -3.034e-09 (1.348e-02 CHEB)
  d2E/dR2 =    0.369261 (   0.399989 CHEB) (   0.480526 NUM)
  d3E/dR3 =   -1.387240 (  27.989754 CHEB)

Spectroscopic constants:
  we =    4417.6 cm**-1 (based on SPLINE)
  we =    4597.7 cm**-1 (based on CHEB)
  we =    5039.4 cm**-1 (based on NUM)

Performing Morse fit ...
Morse-Fit Results:
 Te(adiabatic)   = 5095937.4 cm**-1         =631.816 eV
 d2E/dR**2 (Morse)= -10178.712014897 
 d3E/dR**3 (Morse)= 452803.716322115 
 d4E/dR**4 (Morse)= -15666885.473059168 
 E0               =     22.046265243 Eh  RMS=1.01e-01
 Re               =   0.18846 Angstroem      =  0.35613 Bohr RMS=8.67e-04)
 De(Morse)        = -629.82755 eV             =-5079902.3 cm**-1 RMS=1.01e-01
 D0(Morse)        =      -nan eV
 beta             =  14.82845 au          RMS=4.18e-02
 we               =     -nan cm**-1
 wexe             =  26459.1 cm**-1
 Displacement   =   -0.5538 Angstroem      = -1.04648 Bohr


Timings for individual modules:

Sum of individual times         ...       36.020 sec (=   0.600 min)
GTO integral calculation        ...        6.542 sec (=   0.109 min)  18.2 %
SCF iterations                  ...       17.838 sec (=   0.297 min)  49.5 %
MDCI module                     ...       11.640 sec (=   0.194 min)  32.3 %
                             ****ORCA TERMINATED NORMALLY****
TOTAL RUN TIME: 0 days 0 hours 0 minutes 42 seconds 611 msec
