
                                 *****************
                                 * O   R   C   A *
                                 *****************

           --- An Ab Initio, DFT and Semiempirical electronic structure package ---

                  #######################################################
                  #                        -***-                        #
                  #          Department of theory and spectroscopy      #
                  #               Directorship: Frank Neese             #
                  #        Max Planck Institute fuer Kohlenforschung    #
                  #                Kaiser Wilhelm Platz 1               #
                  #                 D-45470 Muelheim/Ruhr               #
                  #                      Germany                        #
                  #                                                     #
                  #                  All rights reserved                #
                  #                        -***-                        #
                  #######################################################


                         Program Version 4.2.1 -  RELEASE  -


 With contributions from (in alphabetic order):
   Daniel Aravena         : Magnetic Suceptibility
   Michael Atanasov       : Ab Initio Ligand Field Theory (pilot matlab implementation)
   Alexander A. Auer      : GIAO ZORA, VPT2
   Ute Becker             : Parallelization
   Giovanni Bistoni       : ED, misc. LED, open-shell LED, HFLD
   Martin Brehm           : Molecular dynamics
   Dmytro Bykov           : SCF Hessian
   Vijay G. Chilkuri      : MRCI spin determinant printing, contributions to CSF-ICE
   Dipayan Datta          : RHF DLPNO-CCSD density
   Achintya Kumar Dutta   : EOM-CC, STEOM-CC
   Dmitry Ganyushin       : Spin-Orbit,Spin-Spin,Magnetic field MRCI
   Miquel Garcia          : C-PCM Hessian, Gaussian charge scheme
   Yang Guo               : DLPNO-NEVPT2, CIM, IAO-localization
   Andreas Hansen         : Spin unrestricted coupled pair/coupled cluster methods
   Benjamin Helmich-Paris : CASSCF linear response (MC-RPA)
   Lee Huntington         : MR-EOM, pCC
   Robert Izsak           : Overlap fitted RIJCOSX, COSX-SCS-MP3, EOM
   Christian Kollmar      : KDIIS, OOCD, Brueckner-CCSD(T), CCSD density
   Simone Kossmann        : Meta GGA functionals, TD-DFT gradient, OOMP2, MP2 Hessian
   Martin Krupicka        : AUTO-CI
   Lucas Lang             : DCDCAS
   Dagmar Lenk            : GEPOL surface, SMD
   Dimitrios Liakos       : Extrapolation schemes; Compound Job, initial MDCI parallelization
   Dimitrios Manganas     : Further ROCIS development; embedding schemes
   Dimitrios Pantazis     : SARC Basis sets
   Taras Petrenko         : DFT Hessian,TD-DFT gradient, ASA, ECA, R-Raman, ABS, FL, XAS/XES, NRVS
   Peter Pinski           : DLPNO-MP2, DLPNO-MP2 Gradient
   Christoph Reimann      : Effective Core Potentials
   Marius Retegan         : Local ZFS, SOC
   Christoph Riplinger    : Optimizer, TS searches, QM/MM, DLPNO-CCSD(T), (RO)-DLPNO pert. Triples
   Tobias Risthaus        : Range-separated hybrids, TD-DFT gradient, RPA, STAB
   Michael Roemelt        : Original ROCIS implementation
   Masaaki Saitow         : Open-shell DLPNO-CCSD energy and density
   Barbara Sandhoefer     : DKH picture change effects
   Avijit Sen             : IP-ROCIS
   Kantharuban Sivalingam : CASSCF convergence, NEVPT2, FIC-MRCI
   Bernardo de Souza      : ESD, SOC TD-DFT
   Georgi Stoychev        : AutoAux, RI-MP2 NMR
   Willem Van den Heuvel  : Paramagnetic NMR
   Boris Wezisla          : Elementary symmetry handling
   Frank Wennmohs         : Technical directorship


 We gratefully acknowledge several colleagues who have allowed us to
 interface, adapt or use parts of their codes:
   Stefan Grimme, W. Hujo, H. Kruse,             : VdW corrections, initial TS optimization,
                  C. Bannwarth                     DFT functionals, gCP, sTDA/sTD-DF
   Ed Valeev, F. Pavosevic, A. Kumar             : LibInt (2-el integral package), F12 methods
   Garnet Chan, S. Sharma, J. Yang, R. Olivares  : DMRG
   Ulf Ekstrom                                   : XCFun DFT Library
   Mihaly Kallay                                 : mrcc  (arbitrary order and MRCC methods)
   Andreas Klamt, Michael Diedenhofen            : otool_cosmo (COSMO solvation model)
   Jiri Pittner, Ondrej Demel                    : Mk-CCSD
   Frank Weinhold                                : gennbo (NPA and NBO analysis)
   Christopher J. Cramer and Donald G. Truhlar   : smd solvation model
   Lars Goerigk                                  : TD-DFT with DH, B97 family of functionals
   V. Asgeirsson, H. Jonsson                     : NEB implementation
   FAccTs GmbH                                   : IRC, NEB, NEB-TS, Multilevel, MM, QM/MM, CI optimization
   S Lehtola, MJT Oliveira, MAL Marques          : LibXC Library


 Your calculation uses the libint2 library for the computation of 2-el integrals
 For citations please refer to: http://libint.valeyev.net

 Your ORCA version has been built with support for libXC version: 4.2.3
 For citations please refer to: https://tddft.org/programs/libxc/

 This ORCA versions uses:
   CBLAS   interface :  Fast vector & matrix operations
   LAPACKE interface :  Fast linear algebra routines
   SCALAPACK package :  Parallel linear algebra routines


----- Orbital basis set information -----
Your calculation utilizes the basis: 6-311++G**
   H, Li - Ne  : R. Krishnan, J. S. Binkley, R. Seeger and J. A. Pople, J. Chem. Phys. 72, 650 (1980).
   Na - Ar     : A. D. McLean and G. S. Chandler J. Chem. Phys. 72, 5639, (1980).
   K  - Ca     : J.-P. Blaudeau, M. P. McGrath, L. A. Curtiss and L. Radom, J. Chem. Phys. 107, 5016 (1997).
   Ga - Kr     : L. A. Curtiss, M. P. McGrath, J.-P. Blandeau, N. E. Davis, R. C. Binning and L. Radom, J. Chem. Phys. 103, 6104 (1995).
   Pol./Diff.
   H, Li - Cl  : T. Clark, J. Chandrasekhar and P. v. R. Schleyer, J. Comp. Chem. 4, 294 (1983).
   H - Ne      : M. J. Frisch, J. A. Pople and J. S. Binkley, J. Chem. Phys. 80, 3265 (1984).

================================================================================
                                        WARNINGS
                       Please study these warnings very carefully!
================================================================================


WARNING: MDCI localization with Augmented Hessian Foster-Boys
  ===> : Switching off randomization!

WARNING: Post HF methods need fully converged wavefunctions
  ===> : Setting SCFConvForced true
         You can overwrite this default with %scf ConvForced false 


INFO   : the flag for use of LIBINT has been found!

================================================================================
                                       INPUT FILE
================================================================================
NAME = orca.inp
|  1> !QCISD(T) 6-311++G** ENERGY
|  2> 
|  3> %paras
|  4> 	R = 0.4, 2.0, 33 # x-axis of H1
|  5> end
|  6> 
|  7> *xyz 0 1
|  8> H    0.0000000    0.0000000    0.0000000
|  9> H    {R}                0.0000000    0.0000000
| 10> **                         ****END OF INPUT****
================================================================================

                       ******************************
                       * Parameter Scan Calculation *
                       ******************************

Trajectory settings:
    -> SCF surface will be mapped
    -> MDCI surface will be mapped

There are 1 parameter(s) to be scanned
             R: range=   0.40000000 ..   2.00000000  steps=   33
There will be   33 energy evaluations


         *************************************************************
                                TRAJECTORY STEP   1
                  R  :   0.40000000
         *************************************************************
---------------------------------
CARTESIAN COORDINATES (ANGSTROEM)
---------------------------------
  H      0.000000    0.000000    0.000000
  H      0.400000    0.000000    0.000000

----------------------------
CARTESIAN COORDINATES (A.U.)
----------------------------
  NO LB      ZA    FRAG     MASS         X           Y           Z
   0 H     1.0000    0     1.008    0.000000    0.000000    0.000000
   1 H     1.0000    0     1.008    0.755890    0.000000    0.000000

--------------------------------
INTERNAL COORDINATES (ANGSTROEM)
--------------------------------
 H      0   0   0     0.000000000000     0.00000000     0.00000000
 H      1   0   0     0.400000000000     0.00000000     0.00000000

---------------------------
INTERNAL COORDINATES (A.U.)
---------------------------
 H      0   0   0     0.000000000000     0.00000000     0.00000000
 H      1   0   0     0.755890453569     0.00000000     0.00000000

---------------------
BASIS SET INFORMATION
---------------------
There are 1 groups of distinct atoms

 Group   1 Type H   : 6s1p contracted to 4s1p pattern {3111/1}

Atom   0H    basis set group =>   1
Atom   1H    basis set group =>   1
------------------------------------------------------------------------------
                           ORCA GTO INTEGRAL CALCULATION
------------------------------------------------------------------------------

                         BASIS SET STATISTICS AND STARTUP INFO

 # of primitive gaussian shells          ...   14
 # of primitive gaussian functions       ...   18
 # of contracted shells                  ...   10
 # of contracted basis functions         ...   14
 Highest angular momentum                ...    1
 Maximum contraction depth               ...    3
 Integral package used                   ... LIBINT
 Integral threshhold            Thresh   ...  1.000e-10
 Primitive cut-off              TCut     ...  1.000e-11


------------------------------ INTEGRAL EVALUATION ----------------------------


 * One electron integrals 
 Pre-screening matrix                    ... done
 Shell pair data                         ... done (   0.000 sec)

-------------------------------------------------------------------------------
                                 ORCA SCF
-------------------------------------------------------------------------------

------------
SCF SETTINGS
------------
Hamiltonian:
 Ab initio Hamiltonian  Method          .... Hartree-Fock(GTOs)


General Settings:
 Integral files         IntName         .... orca
 Hartree-Fock type      HFTyp           .... RHF
 Total Charge           Charge          ....    0
 Multiplicity           Mult            ....    1
 Number of Electrons    NEL             ....    2
 Basis Dimension        Dim             ....   14
 Nuclear Repulsion      ENuc            ....      1.3229430208 Eh

Convergence Acceleration:
 DIIS                   CNVDIIS         .... on
   Start iteration      DIISMaxIt       ....    12
   Startup error        DIISStart       ....  0.200000
   # of expansion vecs  DIISMaxEq       ....     5
   Bias factor          DIISBfac        ....   1.050
   Max. coefficient     DIISMaxC        ....  10.000
 Newton-Raphson         CNVNR           .... off
 SOSCF                  CNVSOSCF        .... on
   Start iteration      SOSCFMaxIt      ....   150
   Startup grad/error   SOSCFStart      ....  0.003300
 Level Shifting         CNVShift        .... on
   Level shift para.    LevelShift      ....    0.2500
   Turn off err/grad.   ShiftErr        ....    0.0010
 Zerner damping         CNVZerner       .... off
 Static damping         CNVDamp         .... on
   Fraction old density DampFac         ....    0.7000
   Max. Damping (<1)    DampMax         ....    0.9800
   Min. Damping (>=0)   DampMin         ....    0.0000
   Turn off err/grad.   DampErr         ....    0.1000
 Fernandez-Rico         CNVRico         .... off

SCF Procedure:
 Maximum # iterations   MaxIter         ....   125
 SCF integral mode      SCFMode         .... Direct
   Integral package                     .... LIBINT
 Reset frequency        DirectResetFreq ....    20
 Integral Threshold     Thresh          ....  1.000e-10 Eh
 Primitive CutOff       TCut            ....  1.000e-11 Eh

Convergence Tolerance:
 Convergence Check Mode ConvCheckMode   .... Total+1el-Energy
 Convergence forced     ConvForced      .... 1
 Energy Change          TolE            ....  1.000e-06 Eh
 1-El. energy change                    ....  1.000e-03 Eh
 Orbital Gradient       TolG            ....  5.000e-05
 Orbital Rotation angle TolX            ....  5.000e-05
 DIIS Error             TolErr          ....  1.000e-06


Diagonalization of the overlap matrix:
Smallest eigenvalue                        ... 1.932e-03
Time for diagonalization                   ...    0.633 sec
Threshold for overlap eigenvalues          ... 1.000e-08
Number of eigenvalues below threshold      ... 0
Time for construction of square roots      ...    0.000 sec
Total time needed                          ...    0.634 sec

-------------------
DFT GRID GENERATION
-------------------

General Integration Accuracy     IntAcc      ...  4.340
Radial Grid Type                 RadialGrid  ... Gauss-Chebyshev
Angular Grid (max. acc.)         AngularGrid ... Lebedev-110
Angular grid pruning method      GridPruning ... 3 (G Style)
Weight generation scheme         WeightScheme... Becke
Basis function cutoff            BFCut       ...    1.0000e-10
Integration weight cutoff        WCut        ...    1.0000e-14
Grids for H and He will be reduced by one unit

# of grid points (after initial pruning)     ...   1588 (   0.0 sec)
# of grid points (after weights+screening)   ...   1558 (   0.0 sec)
nearest neighbour list constructed           ...    0.0 sec
Grid point re-assignment to atoms done       ...    0.0 sec
Grid point division into batches done        ...    0.0 sec
Reduced shell lists constructed in    0.0 sec

Total number of grid points                  ...     1558
Total number of batches                      ...       26
Average number of points per batch           ...       59
Average number of grid points per atom       ...      779
Average number of shells per batch           ...     9.63 (96.30%)
Average number of basis functions per batch  ...    13.48 (96.30%)
Average number of large shells per batch     ...     9.56 (99.23%)
Average number of large basis fcns per batch ...    13.41 (99.45%)
Maximum spatial batch extension              ...  15.26, 21.59, 21.59 au
Average spatial batch extension              ...   4.39,  8.19,  8.26 au

Time for grid setup =    0.008 sec

------------------------------
INITIAL GUESS: MODEL POTENTIAL
------------------------------
Loading Hartree-Fock densities                     ... done
Calculating cut-offs                               ... done
Setting up the integral package                    ... done
Initializing the effective Hamiltonian             ... done
Starting the Coulomb interaction                   ... done (   0.0 sec)
Reading the grid                                   ... done
Mapping shells                                     ... done
Starting the XC term evaluation                    ... done (   0.0 sec)
Transforming the Hamiltonian                       ... done (   0.0 sec)
Diagonalizing the Hamiltonian                      ... done (   0.0 sec)
Back transforming the eigenvectors                 ... done (   0.0 sec)
Now organizing SCF variables                       ... done
                      ------------------
                      INITIAL GUESS DONE (   0.1 sec)
                      ------------------
--------------
SCF ITERATIONS
--------------
ITER       Energy         Delta-E        Max-DP      RMS-DP      [F,P]     Damp
               ***  Starting incremental Fock matrix formation  ***
  0     -0.9281709203   0.000000000000 0.00811358  0.00118313  0.1198101 0.7000
  1     -0.9308225105  -0.002651590136 0.00658680  0.00097661  0.0930652 0.7000
                               ***Turning on DIIS***
  2     -0.9328580767  -0.002035566222 0.01622289  0.00244385  0.0697901 0.0000
  3     -0.9403143264  -0.007456249650 0.00159216  0.00039520  0.0102339 0.0000
                      *** Initiating the SOSCF procedure ***
                           *** Shutting down DIIS ***
                      *** Re-Reading the Fockian *** 
                      *** Removing any level shift *** 
ITER      Energy       Delta-E        Grad      Rot      Max-DP    RMS-DP
  4     -0.93863216   0.0016821649  0.001281  0.001281  0.000623  0.000125
               *** Restarting incremental Fock matrix formation ***
  5     -0.93818929   0.0004428757  0.000262  0.000326  0.000210  0.000036
                 **** Energy Check signals convergence ****
              ***Rediagonalizing the Fockian in SOSCF/NRSCF***

               *****************************************************
               *                     SUCCESS                       *
               *           SCF CONVERGED AFTER   6 CYCLES          *
               *****************************************************


----------------
TOTAL SCF ENERGY
----------------

Total Energy       :           -0.93818966 Eh             -25.52944 eV

Components:
Nuclear Repulsion  :            1.32294302 Eh              35.99911 eV
Electronic Energy  :           -2.26113268 Eh             -61.52855 eV
One Electron Energy:           -3.07051993 Eh             -83.55309 eV
Two Electron Energy:            0.80938725 Eh              22.02455 eV

Virial components:
Potential Energy   :           -2.57841625 Eh             -70.16227 eV
Kinetic Energy     :            1.64022660 Eh              44.63283 eV
Virial Ratio       :            1.57198783


---------------
SCF CONVERGENCE
---------------

  Last Energy change         ...   -3.7028e-07  Tolerance :   1.0000e-06
  Last MAX-Density change    ...    6.6765e-05  Tolerance :   1.0000e-05
  Last RMS-Density change    ...    1.1095e-05  Tolerance :   1.0000e-06
  Last Orbital Gradient      ...    6.3746e-05  Tolerance :   5.0000e-05
  Last Orbital Rotation      ...    1.0544e-04  Tolerance :   5.0000e-05

             **** THE GBW FILE WAS UPDATED (orca.gbw) ****
             **** DENSITY FILE WAS UPDATED (orca.scfp) ****
             **** ENERGY FILE WAS UPDATED (orca.en.tmp) ****
             **** THE GBW FILE WAS UPDATED (orca.gbw) ****
             **** DENSITY FILE WAS UPDATED (orca.scfp) ****
----------------
ORBITAL ENERGIES
----------------

  NO   OCC          E(Eh)            E(eV) 
   0   2.0000      -0.725845       -19.7513 
   1   0.0000       0.068312         1.8589 
   2   0.0000       0.077048         2.0966 
   3   0.0000       0.286638         7.7998 
   4   0.0000       0.423855        11.5337 
   5   0.0000       0.851226        23.1630 
   6   0.0000       1.403028        38.1783 
   7   0.0000       1.403028        38.1783 
   8   0.0000       1.985315        54.0232 
   9   0.0000       2.284399        62.1617 
  10   0.0000       2.330696        63.4215 
  11   0.0000       2.330696        63.4215 
  12   0.0000       2.699967        73.4698 
  13   0.0000       6.987452       190.1382 

                    ********************************
                    * MULLIKEN POPULATION ANALYSIS *
                    ********************************

-----------------------
MULLIKEN ATOMIC CHARGES
-----------------------
   0 H :   -0.000000
   1 H :    0.000000
Sum of atomic charges:   -0.0000000

--------------------------------
MULLIKEN REDUCED ORBITAL CHARGES
--------------------------------
  0 H s       :     0.992974  s :     0.992974
      pz      :     0.000000  p :     0.007026
      px      :     0.007026
      py      :     0.000000
  1 H s       :     0.992974  s :     0.992974
      pz      :     0.000000  p :     0.007026
      px      :     0.007026
      py      :    -0.000000


                     *******************************
                     * LOEWDIN POPULATION ANALYSIS *
                     *******************************

----------------------
LOEWDIN ATOMIC CHARGES
----------------------
   0 H :   -0.000000
   1 H :    0.000000

-------------------------------
LOEWDIN REDUCED ORBITAL CHARGES
-------------------------------
  0 H s       :     0.977764  s :     0.977764
      pz      :     0.000000  p :     0.022236
      px      :     0.022236
      py      :     0.000000
  1 H s       :     0.977764  s :     0.977764
      pz      :     0.000000  p :     0.022236
      px      :     0.022236
      py      :     0.000000


                      *****************************
                      * MAYER POPULATION ANALYSIS *
                      *****************************

  NA   - Mulliken gross atomic population
  ZA   - Total nuclear charge
  QA   - Mulliken gross atomic charge
  VA   - Mayer's total valence
  BVA  - Mayer's bonded valence
  FA   - Mayer's free valence

  ATOM       NA         ZA         QA         VA         BVA        FA
  0 H      1.0000     1.0000    -0.0000     1.0000     1.0000    -0.0000
  1 H      1.0000     1.0000     0.0000     1.0000     1.0000    -0.0000

  Mayer bond orders larger than 0.100000
B(  0-H ,  1-H ) :   1.0000 

-------
TIMINGS
-------

Total SCF time: 0 days 0 hours 0 min 1 sec 

Total time                  ....       1.425 sec
Sum of individual times     ....       0.625 sec  ( 43.9%)

Fock matrix formation       ....       0.509 sec  ( 35.7%)
Diagonalization             ....       0.000 sec  (  0.0%)
Density matrix formation    ....       0.000 sec  (  0.0%)
Population analysis         ....       0.000 sec  (  0.0%)
Initial guess               ....       0.107 sec  (  7.5%)
Orbital Transformation      ....       0.000 sec  (  0.0%)
Orbital Orthonormalization  ....       0.000 sec  (  0.0%)
DIIS solution               ....       0.000 sec  (  0.0%)
SOSCF solution              ....       0.000 sec  (  0.0%)


------------------------------------------------------------------------------- 
                              ORCA-MATRIX DRIVEN CI                            
------------------------------------------------------------------------------- 

--------------------------------
AUTOMATIC CHOICE OF INCORE LEVEL
--------------------------------

Memory available                           ...    256.00 MB
Memory needed for S+T                      ...      0.00 MB
Memory needed for J+K                      ...      0.01 MB
Memory needed for DIIS                     ...      0.04 MB
Memory needed for 3-ext                    ...      0.02 MB
Memory needed for 4-ext                    ...      0.12 MB
Memory needed for triples                  ...      0.08 MB
 -> Final InCoreLevel    ... 5
 -> check shows that triples correction can be computed


Wavefunction type
-----------------
Correlation treatment                      ...     QCISD     
Single excitations                         ... ON
Orbital optimization                       ... OFF
Calculation of Z vector                    ... OFF
Calculation of Brueckner orbitals          ... OFF
Perturbative triple excitations            ... ON
Calculation of F12 correction              ... OFF
Frozen core treatment                      ... chemical core (0 el)
Reference Wavefunction                     ... RHF
  Internal Orbitals:     0 ...    0 (  1 MO's/  2 electrons)
  Virtual  Orbitals:     1 ...   13 ( 13 MO's              )
Number of AO's                             ...     14
Number of electrons                        ...      2
Number of correlated electrons             ...      2

Algorithmic settings
--------------------
Integral transformation                    ... AO direct full transformation
K(C) Formation                             ... FULL-MO TRAFO
Maximum number of iterations               ...        50
Convergence tolerance (max. residuum)      ... 2.500e-05
Level shift for amplitude update           ... 2.000e-01
Maximum number of DIIS vectors             ...         7
DIIS turned on at iteration                ...         0
Damping before turning on DIIS             ...     0.500
Damping after turning on DIIS              ...     0.000
Pair specific amplitude update             ... OFF
Natural orbital iterations                 ... OFF
Perturbative natural orbital generation    ... OFF
Printlevel                                 ... 2

Memory handling:
----------------
Maximum memory for working arrays          ...    256 MB
Data storage in matrix containers          ... UNCOMPRESSED
Data type for integral storage             ... DOUBLE
In-Core Storage of quantities:
   Amplitudes+Sigma Vector      ... YES
   J+K operators                ... YES
   DIIS vectors                 ... YES
   3-external integrals         ... YES
   4-external integrals         ... YES


Initializing the integral package          ... done
Warning: reference  - re-canonicalizations have been set to INT 1 VIRT 1

--------------------------
CLOSED-SHELL FOCK OPERATOR
--------------------------

<ss|ss>:          666 b            0 skpd (  0.0%)    0.000 s ( 0.000 ms/b)
<ss|sp>:          576 b            0 skpd (  0.0%)    0.000 s ( 0.000 ms/b)
<ss|pp>:          108 b            0 skpd (  0.0%)    0.000 s ( 0.001 ms/b)
<sp|sp>:          136 b            0 skpd (  0.0%)    0.000 s ( 0.001 ms/b)
<sp|pp>:           48 b            0 skpd (  0.0%)    0.000 s ( 0.001 ms/b)
<pp|pp>:            6 b            0 skpd (  0.0%)    0.000 s ( 0.004 ms/b)
Recanonicalizing the internal orbitals
Recanonicalizing the virtual orbitals
Time needed for Fock operator              ...            0.137 sec
Reference energy                           ...     -0.938189678

------------------------------
PARTIAL COULOMB TRANSFORMATION
------------------------------

Transformation type                        ... one-operator
Dimension of the basis                     ...   14
Number of internal MOs                     ...   14 (0-13)
Pair cutoff                                ... 0.000e+00 Eh
Number of AO pairs included in the trafo   ...  105
Total Number of distinct AO pairs          ...  105
Memory devoted for trafo                   ...  256.0 MB 
Max. Number of MO pairs treated together   ... 319566      
Max. Number of MOs treated per batch       ... 22826      
Number Format for Storage                  ... Double (8 Byte)
AO-integral source                         ... DIRECT
Integral package used                      ... LIBINT

Starting integral evaluation:
<ss|**>:         1980 b        0 skpd     0.001 s (  0.000 ms/b)
<sp|**>:          880 b        0 skpd     0.001 s (  0.001 ms/b)
<pp|**>:          165 b        0 skpd     0.000 s (  0.002 ms/b)
Closing buffer AOJ ( 0.00 GB; CompressionRatio= 0.99)
Collecting buffer AOJ 
    ... done with AO integral generation
Number of MO pairs included in the trafo   ...  105
    ... Now sorting integrals
IBATCH = 1 of  1
Closing buffer JAO ( 0.00 GB; CompressionRatio= 0.99)
Collecting buffer JAO 
TOTAL TIME for half transformation         ...     0.003 sec
AO-integral generation                     ...     0.001 sec
Half transformation                        ...     0.001 sec
J-integral sorting                         ...     0.001 sec

-------------------------- SECOND HALF TRANSFORMATION -------------------------
Formation of (pq|rs)                       ... ok (     0.001 sec)
Integral sorting                           ... ok (     0.000 sec)

------------------
CLOSED SHELL GUESS
------------------

Initial guess performed in     0.000 sec
E(0)                                       ...     -0.938189678
E(MP2)                                     ...     -0.026783153
Initial E(tot)                             ...     -0.964972832
<T|T>                                      ...      0.006541755
Number of pairs included                   ... 1
Total number of pairs                      ... 1

---------------------------
RHF QUADRATIC CI ITERATIONS
---------------------------

Number of amplitudes to be optimized       ... 182

Iter       E(tot)           E(Corr)          Delta-E          Residual     Time
  0     -0.964972832     -0.026783153      0.000000000      0.027803167    0.00
                           *** Turning on DIIS ***
  1     -0.969889043     -0.031699365     -0.004916211      0.006681402    0.00
  2     -0.971585664     -0.033395986     -0.001696621      0.000693606    0.00
  3     -0.971661679     -0.033472001     -0.000076015      0.000147267    0.00
  4     -0.971667611     -0.033477933     -0.000005932      0.000025979    0.00
  5     -0.971668532     -0.033478854     -0.000000921      0.000006920    0.00
               --- The Quadratic CI iterations have converged ---

-------------------
QUADRATIC CI ENERGY
-------------------

E(0)                                       ...     -0.938189678
E(CORR)                                    ...     -0.033478854
E(TOT)                                     ...     -0.971668532
Singles Norm <S|S>**1/2                    ...      0.001699232  
T1 diagnostic                              ...      0.001201538  

------------------
LARGEST AMPLITUDES
------------------
   0->  7   0->  7       0.040621
   0->  6   0->  6       0.040621
   0->  4   0->  4       0.031166
   0->  5   0->  5       0.029906
   0->  8   0->  8       0.026008
   0->  4   0->  8       0.023376
   0->  8   0->  4       0.023376
   0->  3   0->  5       0.020280
   0->  5   0->  3       0.020280
   0->  5   0->  9       0.019803
   0->  9   0->  5       0.019803
   0->  9   0->  9       0.018228
   0->  3   0->  3       0.015207
   0->  4   0->  1       0.013981
   0->  1   0->  4       0.013981
   0->  3   0->  9       0.011368


        !!!!!!!!!!!!!!!!!!!!!!!!!!!!!!!!!!!!!!!!!!!!!!!!!!!!!!!!!!!!!!!!!!!!!!!!!! 
        !  Warning: Densities are linearized densities !                         !
        !!!!!!!!!!!!!!!!!!!!!!!!!!!!!!!!!!!!!!!!!!!!!!!!!!!!!!!!!!!!!!!!!!!!!!!!!! 

Trace of internal density part =     -0.021419000
Trace of external density part =      0.021419000
----------------------
RHF TRIPLES CORRECTION (Algorithm 1)
----------------------

Multiplier for the singles contribution    ...      2.000000000

Triples Correction (T)                     ...      0.000000000
Scaling of triples based on CCSD energies (Peterson et al. Molecular Physics 113, 1551 (2015))
E(T*) = f*E(T) where f = E(F12-CCSD)/E(CCSD) 
f = CCSD (with F12)/ CCSD (without F12)    ...      1.000000000
Scaled triples correction (T)              ...      0.000000000

Final correlation energy                   ...     -0.033478854
E(QCISD)                                   ...     -0.971668532
E(QCISD(T))                                ...     -0.971668532

NORM  =      1.010712388 sqrt=     1.005341926
W(HF) =      0.989401151
------------------------------------------------------------------------------
                           ORCA POPULATION ANALYSIS
------------------------------------------------------------------------------
Input electron density              ... orca.mdcip
BaseName (.gbw .S,...)              ... orca

                    ********************************
                    * MULLIKEN POPULATION ANALYSIS *
                    ********************************

-----------------------
MULLIKEN ATOMIC CHARGES
-----------------------
   0 H :   -0.000000
   1 H :    0.000000
Sum of atomic charges:   -0.0000000

--------------------------------
MULLIKEN REDUCED ORBITAL CHARGES
--------------------------------
  0 H s       :     0.988993  s :     0.988993
      pz      :     0.001703  p :     0.011007
      px      :     0.007600
      py      :     0.001703
  1 H s       :     0.988993  s :     0.988993
      pz      :     0.001703  p :     0.011007
      px      :     0.007600
      py      :     0.001703


                     *******************************
                     * LOEWDIN POPULATION ANALYSIS *
                     *******************************

----------------------
LOEWDIN ATOMIC CHARGES
----------------------
   0 H :   -0.000000
   1 H :    0.000000

-------------------------------
LOEWDIN REDUCED ORBITAL CHARGES
-------------------------------
  0 H s       :     0.972098  s :     0.972098
      pz      :     0.001703  p :     0.027902
      px      :     0.024496
      py      :     0.001703
  1 H s       :     0.972098  s :     0.972098
      pz      :     0.001703  p :     0.027902
      px      :     0.024496
      py      :     0.001703


                      *****************************
                      * MAYER POPULATION ANALYSIS *
                      *****************************

  NA   - Mulliken gross atomic population
  ZA   - Total nuclear charge
  QA   - Mulliken gross atomic charge
  VA   - Mayer's total valence
  BVA  - Mayer's bonded valence
  FA   - Mayer's free valence

  ATOM       NA         ZA         QA         VA         BVA        FA
  0 H      1.0000     1.0000    -0.0000     1.0174     0.9749     0.0425
  1 H      1.0000     1.0000     0.0000     1.0174     0.9749     0.0425

  Mayer bond orders larger than 0.100000
B(  0-H ,  1-H ) :   0.9749 



------------------------------------------------------------------------------- 
                                     TIMINGS                                   
------------------------------------------------------------------------------- 


Total execution time                   ...        1.912 sec

Fock Matrix Formation                  ...        0.137 sec (  7.2%)
Initial Guess                          ...        0.000 sec (  0.0%)
DIIS Solver                            ...        0.000 sec (  0.0%)
State Vector Update                    ...        0.000 sec (  0.0%)
Sigma-vector construction              ...        0.001 sec (  0.1%)
Total Time for computing (T)           ...        0.000 sec (  0.0% of ALL)


-------------------------   --------------------
FINAL SINGLE POINT ENERGY        -0.971668532132
-------------------------   --------------------

Storing actual gbw-file in orca.001.gbw ... done

                            ***************************************
                            *     ORCA property calculations      *
                            ***************************************

                                    ---------------------
                                    Active property flags
                                    ---------------------
   (+) Dipole Moment


------------------------------------------------------------------------------
                       ORCA ELECTRIC PROPERTIES CALCULATION
------------------------------------------------------------------------------

Dipole Moment Calculation                       ... on
Quadrupole Moment Calculation                   ... off
Polarizability Calculation                      ... off
GBWName                                         ... orca.gbw
Electron density file                           ... orca.scfp
The origin for moment calculation is the CENTER OF MASS  = ( 0.377945,  0.000000  0.000000)

-------------
DIPOLE MOMENT
-------------
                                X             Y             Z
Electronic contribution:      0.00000      -0.00000      -0.00000
Nuclear contribution   :      0.00000       0.00000       0.00000
                        -----------------------------------------
Total Dipole Moment    :      0.00000      -0.00000      -0.00000
                        -----------------------------------------
Magnitude (a.u.)       :      0.00000
Magnitude (Debye)      :      0.00000



--------------------
Rotational spectrum 
--------------------
 
Rotational constants in cm-1:     0.000000   209.048176   209.048176 
Rotational constants in MHz :     0.000000 6267106.642963 6267106.642963 

 Dipole components along the rotational axes: 
x,y,z [a.u.] :     0.000000    -0.000000    -0.000000 
x,y,z [Debye]:     0.000000    -0.000000    -0.000000 

 

                           *** MDCI DENSITY ***

------------------------------------------------------------------------------
                       ORCA ELECTRIC PROPERTIES CALCULATION
------------------------------------------------------------------------------

Dipole Moment Calculation                       ... on
Quadrupole Moment Calculation                   ... off
Polarizability Calculation                      ... off
GBWName                                         ... orca.gbw
Electron density file                           ... orca.mdcip
The origin for moment calculation is the CENTER OF MASS  = ( 0.377945,  0.000000  0.000000)

-------------
DIPOLE MOMENT
-------------
                                X             Y             Z
Electronic contribution:      0.00000      -0.00000      -0.00000
Nuclear contribution   :      0.00000       0.00000       0.00000
                        -----------------------------------------
Total Dipole Moment    :      0.00000      -0.00000      -0.00000
                        -----------------------------------------
Magnitude (a.u.)       :      0.00000
Magnitude (Debye)      :      0.00000



--------------------
Rotational spectrum 
--------------------
 
Rotational constants in cm-1:     0.000000   209.048176   209.048176 
Rotational constants in MHz :     0.000000 6267106.642963 6267106.642963 

 Dipole components along the rotational axes: 
x,y,z [a.u.] :     0.000000    -0.000000    -0.000000 
x,y,z [Debye]:     0.000000    -0.000000    -0.000000 

 

         *************************************************************
                                TRAJECTORY STEP   2
                  R  :   0.45000000
         *************************************************************
---------------------------------
CARTESIAN COORDINATES (ANGSTROEM)
---------------------------------
  H      0.000000    0.000000    0.000000
  H      0.450000    0.000000    0.000000

----------------------------
CARTESIAN COORDINATES (A.U.)
----------------------------
  NO LB      ZA    FRAG     MASS         X           Y           Z
   0 H     1.0000    0     1.008    0.000000    0.000000    0.000000
   1 H     1.0000    0     1.008    0.850377    0.000000    0.000000

--------------------------------
INTERNAL COORDINATES (ANGSTROEM)
--------------------------------
 H      0   0   0     0.000000000000     0.00000000     0.00000000
 H      1   0   0     0.450000000000     0.00000000     0.00000000

---------------------------
INTERNAL COORDINATES (A.U.)
---------------------------
 H      0   0   0     0.000000000000     0.00000000     0.00000000
 H      1   0   0     0.850376760265     0.00000000     0.00000000


Diagonalization of the overlap matrix:
Smallest eigenvalue                        ... 2.384e-03
Time for diagonalization                   ...    0.000 sec
Threshold for overlap eigenvalues          ... 1.000e-08
Number of eigenvalues below threshold      ... 0
Time for construction of square roots      ...    0.000 sec
Total time needed                          ...    0.000 sec

--------------
SCF ITERATIONS
--------------
ITER       Energy         Delta-E        Max-DP      RMS-DP      [F,P]     Damp
               ***  Starting incremental Fock matrix formation  ***
  0     -1.0116073900   0.000000000000 0.00321049  0.00048723  0.0381434 0.7000
                      *** Initiating the SOSCF procedure ***
                      *** Re-Reading the Fockian *** 
                      *** Removing any level shift *** 
ITER      Energy       Delta-E        Grad      Rot      Max-DP    RMS-DP
  1     -1.01190610  -0.0002987094  0.002618  0.002618  0.008670  0.001290
               *** Restarting incremental Fock matrix formation ***
  2     -1.01270721  -0.0008011135  0.002308  0.001647  0.001024  0.000183
  3     -1.01272160  -0.0000143832  0.000321  0.000342  0.000164  0.000042
                 **** Energy Check signals convergence ****
              ***Rediagonalizing the Fockian in SOSCF/NRSCF***

               *****************************************************
               *                     SUCCESS                       *
               *           SCF CONVERGED AFTER   4 CYCLES          *
               *****************************************************

Total Energy       :           -1.01272199 Eh             -27.55757 eV
  Last Energy change         ...   -3.9393e-07  Tolerance :   1.0000e-06
  Last MAX-Density change    ...    2.7538e-05  Tolerance :   1.0000e-05
             **** THE GBW FILE WAS UPDATED (orca.gbw) ****
             **** DENSITY FILE WAS UPDATED (orca.scfp) ****
             **** ENERGY FILE WAS UPDATED (orca.en.tmp) ****
             **** THE GBW FILE WAS UPDATED (orca.gbw) ****
             **** DENSITY FILE WAS UPDATED (orca.scfp) ****
Total SCF time: 0 days 0 hours 0 min 0 sec 


------------------------------------------------------------------------------- 
                              ORCA-MATRIX DRIVEN CI                            
------------------------------------------------------------------------------- 

--------------------------------
AUTOMATIC CHOICE OF INCORE LEVEL
--------------------------------

Memory available                           ...    256.00 MB
Memory needed for S+T                      ...      0.00 MB
Memory needed for J+K                      ...      0.01 MB
Memory needed for DIIS                     ...      0.04 MB
Memory needed for 3-ext                    ...      0.02 MB
Memory needed for 4-ext                    ...      0.12 MB
Memory needed for triples                  ...      0.08 MB
 -> Final InCoreLevel    ... 5
 -> check shows that triples correction can be computed


Wavefunction type
-----------------
Correlation treatment                      ...     QCISD     
Single excitations                         ... ON
Orbital optimization                       ... OFF
Calculation of Z vector                    ... OFF
Calculation of Brueckner orbitals          ... OFF
Perturbative triple excitations            ... ON
Calculation of F12 correction              ... OFF
Frozen core treatment                      ... chemical core (0 el)
Reference Wavefunction                     ... RHF
  Internal Orbitals:     0 ...    0 (  1 MO's/  2 electrons)
  Virtual  Orbitals:     1 ...   13 ( 13 MO's              )
Number of AO's                             ...     14
Number of electrons                        ...      2
Number of correlated electrons             ...      2

Algorithmic settings
--------------------
Integral transformation                    ... AO direct full transformation
K(C) Formation                             ... FULL-MO TRAFO
Maximum number of iterations               ...        50
Convergence tolerance (max. residuum)      ... 2.500e-05
Level shift for amplitude update           ... 2.000e-01
Maximum number of DIIS vectors             ...         7
DIIS turned on at iteration                ...         0
Damping before turning on DIIS             ...     0.500
Damping after turning on DIIS              ...     0.000
Pair specific amplitude update             ... OFF
Natural orbital iterations                 ... OFF
Perturbative natural orbital generation    ... OFF
Printlevel                                 ... 2

Memory handling:
----------------
Maximum memory for working arrays          ...    256 MB
Data storage in matrix containers          ... UNCOMPRESSED
Data type for integral storage             ... DOUBLE
In-Core Storage of quantities:
   Amplitudes+Sigma Vector      ... YES
   J+K operators                ... YES
   DIIS vectors                 ... YES
   3-external integrals         ... YES
   4-external integrals         ... YES


Initializing the integral package          ... done
Warning: reference  - re-canonicalizations have been set to INT 1 VIRT 1

--------------------------
CLOSED-SHELL FOCK OPERATOR
--------------------------

<ss|ss>:          666 b            0 skpd (  0.0%)    0.000 s ( 0.000 ms/b)
<ss|sp>:          576 b            0 skpd (  0.0%)    0.000 s ( 0.000 ms/b)
<ss|pp>:          108 b            0 skpd (  0.0%)    0.000 s ( 0.001 ms/b)
<sp|sp>:          136 b            0 skpd (  0.0%)    0.000 s ( 0.001 ms/b)
<sp|pp>:           48 b            0 skpd (  0.0%)    0.000 s ( 0.001 ms/b)
<pp|pp>:            6 b            0 skpd (  0.0%)    0.000 s ( 0.003 ms/b)
Recanonicalizing the internal orbitals
Recanonicalizing the virtual orbitals
Time needed for Fock operator              ...            0.001 sec
Reference energy                           ...     -1.012721993

------------------------------
PARTIAL COULOMB TRANSFORMATION
------------------------------

Transformation type                        ... one-operator
Dimension of the basis                     ...   14
Number of internal MOs                     ...   14 (0-13)
Pair cutoff                                ... 0.000e+00 Eh
Number of AO pairs included in the trafo   ...  105
Total Number of distinct AO pairs          ...  105
Memory devoted for trafo                   ...  256.0 MB 
Max. Number of MO pairs treated together   ... 319566      
Max. Number of MOs treated per batch       ... 22826      
Number Format for Storage                  ... Double (8 Byte)
AO-integral source                         ... DIRECT
Integral package used                      ... LIBINT

Starting integral evaluation:
<ss|**>:         1980 b        0 skpd     0.001 s (  0.000 ms/b)
<sp|**>:          880 b        0 skpd     0.001 s (  0.001 ms/b)
<pp|**>:          165 b        0 skpd     0.000 s (  0.001 ms/b)
Closing buffer AOJ ( 0.00 GB; CompressionRatio= 0.99)
Collecting buffer AOJ 
    ... done with AO integral generation
Number of MO pairs included in the trafo   ...  105
    ... Now sorting integrals
IBATCH = 1 of  1
Closing buffer JAO ( 0.00 GB; CompressionRatio= 0.99)
Collecting buffer JAO 
TOTAL TIME for half transformation         ...     0.002 sec
AO-integral generation                     ...     0.001 sec
Half transformation                        ...     0.001 sec
J-integral sorting                         ...     0.000 sec

-------------------------- SECOND HALF TRANSFORMATION -------------------------
Formation of (pq|rs)                       ... ok (     0.001 sec)
Integral sorting                           ... ok (     0.000 sec)

------------------
CLOSED SHELL GUESS
------------------

Initial guess performed in     0.000 sec
E(0)                                       ...     -1.012721993
E(MP2)                                     ...     -0.026941707
Initial E(tot)                             ...     -1.039663700
<T|T>                                      ...      0.006825097
Number of pairs included                   ... 1
Total number of pairs                      ... 1

---------------------------
RHF QUADRATIC CI ITERATIONS
---------------------------

Number of amplitudes to be optimized       ... 182

Iter       E(tot)           E(Corr)          Delta-E          Residual     Time
  0     -1.039663700     -0.026941707      0.000000000      0.027476838    0.00
                           *** Turning on DIIS ***
  1     -1.044625149     -0.031903156     -0.004961449      0.006618788    0.00
  2     -1.046386046     -0.033664053     -0.001760897      0.000833732    0.00
  3     -1.046470961     -0.033748968     -0.000084915      0.000182584    0.00
  4     -1.046477721     -0.033755729     -0.000006760      0.000025693    0.00
  5     -1.046478624     -0.033756631     -0.000000902      0.000005010    0.00
               --- The Quadratic CI iterations have converged ---

-------------------
QUADRATIC CI ENERGY
-------------------

E(0)                                       ...     -1.012721993
E(CORR)                                    ...     -0.033756631
E(TOT)                                     ...     -1.046478624
Singles Norm <S|S>**1/2                    ...      0.002193596  
T1 diagnostic                              ...      0.001551106  

------------------
LARGEST AMPLITUDES
------------------
   0->  6   0->  6       0.040848
   0->  7   0->  7       0.040848
   0->  5   0->  5       0.032554
   0->  4   0->  4       0.031786
   0->  8   0->  8       0.024488
   0->  5   0->  3       0.022910
   0->  3   0->  5       0.022910
   0->  4   0->  8       0.022577
   0->  8   0->  4       0.022577
   0->  5   0->  9       0.020269
   0->  9   0->  5       0.020269
   0->  3   0->  3       0.017873
   0->  9   0->  9       0.017654
   0->  1   0->  4       0.014456
   0->  4   0->  1       0.014456
   0->  3   0->  9       0.012046


        !!!!!!!!!!!!!!!!!!!!!!!!!!!!!!!!!!!!!!!!!!!!!!!!!!!!!!!!!!!!!!!!!!!!!!!!!! 
        !  Warning: Densities are linearized densities !                         !
        !!!!!!!!!!!!!!!!!!!!!!!!!!!!!!!!!!!!!!!!!!!!!!!!!!!!!!!!!!!!!!!!!!!!!!!!!! 

Trace of internal density part =     -0.022560878
Trace of external density part =      0.022560878
----------------------
RHF TRIPLES CORRECTION (Algorithm 1)
----------------------

Multiplier for the singles contribution    ...      2.000000000

Triples Correction (T)                     ...      0.000000000
Scaling of triples based on CCSD energies (Peterson et al. Molecular Physics 113, 1551 (2015))
E(T*) = f*E(T) where f = E(F12-CCSD)/E(CCSD) 
f = CCSD (with F12)/ CCSD (without F12)    ...      1.000000000
Scaled triples correction (T)              ...      0.000000000

Final correlation energy                   ...     -0.033756631
E(QCISD)                                   ...     -1.046478624
E(QCISD(T))                                ...     -1.046478624

NORM  =      1.011285251 sqrt=     1.005626795
W(HF) =      0.988840685
------------------------------------------------------------------------------
                           ORCA POPULATION ANALYSIS
------------------------------------------------------------------------------
Input electron density              ... orca.mdcip
BaseName (.gbw .S,...)              ... orca


------------------------------------------------------------------------------- 
                                     TIMINGS                                   
------------------------------------------------------------------------------- 


Total execution time                   ...        0.115 sec

Fock Matrix Formation                  ...        0.001 sec (  0.9%)
Initial Guess                          ...        0.000 sec (  0.0%)
DIIS Solver                            ...        0.000 sec (  0.1%)
State Vector Update                    ...        0.000 sec (  0.0%)
Sigma-vector construction              ...        0.001 sec (  1.1%)
Total Time for computing (T)           ...        0.000 sec (  0.0% of ALL)


-------------------------   --------------------
FINAL SINGLE POINT ENERGY        -1.046478623744
-------------------------   --------------------

Storing actual gbw-file in orca.002.gbw ... done

                            ***************************************
                            *     ORCA property calculations      *
                            ***************************************

                                    ---------------------
                                    Active property flags
                                    ---------------------
   (+) Dipole Moment


------------------------------------------------------------------------------
                       ORCA ELECTRIC PROPERTIES CALCULATION
------------------------------------------------------------------------------

Dipole Moment Calculation                       ... on
Quadrupole Moment Calculation                   ... off
Polarizability Calculation                      ... off
GBWName                                         ... orca.gbw
Electron density file                           ... orca.scfp
The origin for moment calculation is the CENTER OF MASS  = ( 0.425188,  0.000000  0.000000)

-------------
DIPOLE MOMENT
-------------
                                X             Y             Z
Electronic contribution:      0.00000      -0.00000      -0.00000
Nuclear contribution   :      0.00000       0.00000       0.00000
                        -----------------------------------------
Total Dipole Moment    :      0.00000      -0.00000      -0.00000
                        -----------------------------------------
Magnitude (a.u.)       :      0.00000
Magnitude (Debye)      :      0.00000



--------------------
Rotational spectrum 
--------------------
 
Rotational constants in cm-1:     0.000000   165.173867   165.173867 
Rotational constants in MHz :     0.000000 4951787.964811 4951787.964811 

 Dipole components along the rotational axes: 
x,y,z [a.u.] :     0.000000    -0.000000    -0.000000 
x,y,z [Debye]:     0.000000    -0.000000    -0.000000 

 

                           *** MDCI DENSITY ***

------------------------------------------------------------------------------
                       ORCA ELECTRIC PROPERTIES CALCULATION
------------------------------------------------------------------------------

Dipole Moment Calculation                       ... on
Quadrupole Moment Calculation                   ... off
Polarizability Calculation                      ... off
GBWName                                         ... orca.gbw
Electron density file                           ... orca.mdcip
The origin for moment calculation is the CENTER OF MASS  = ( 0.425188,  0.000000  0.000000)

-------------
DIPOLE MOMENT
-------------
                                X             Y             Z
Electronic contribution:     -0.00000      -0.00000      -0.00000
Nuclear contribution   :      0.00000       0.00000       0.00000
                        -----------------------------------------
Total Dipole Moment    :     -0.00000      -0.00000      -0.00000
                        -----------------------------------------
Magnitude (a.u.)       :      0.00000
Magnitude (Debye)      :      0.00000



--------------------
Rotational spectrum 
--------------------
 
Rotational constants in cm-1:     0.000000   165.173867   165.173867 
Rotational constants in MHz :     0.000000 4951787.964811 4951787.964811 

 Dipole components along the rotational axes: 
x,y,z [a.u.] :    -0.000000    -0.000000    -0.000000 
x,y,z [Debye]:    -0.000000    -0.000000    -0.000000 

 

         *************************************************************
                                TRAJECTORY STEP   3
                  R  :   0.50000000
         *************************************************************
---------------------------------
CARTESIAN COORDINATES (ANGSTROEM)
---------------------------------
  H      0.000000    0.000000    0.000000
  H      0.500000    0.000000    0.000000

----------------------------
CARTESIAN COORDINATES (A.U.)
----------------------------
  NO LB      ZA    FRAG     MASS         X           Y           Z
   0 H     1.0000    0     1.008    0.000000    0.000000    0.000000
   1 H     1.0000    0     1.008    0.944863    0.000000    0.000000

--------------------------------
INTERNAL COORDINATES (ANGSTROEM)
--------------------------------
 H      0   0   0     0.000000000000     0.00000000     0.00000000
 H      1   0   0     0.500000000000     0.00000000     0.00000000

---------------------------
INTERNAL COORDINATES (A.U.)
---------------------------
 H      0   0   0     0.000000000000     0.00000000     0.00000000
 H      1   0   0     0.944863066961     0.00000000     0.00000000


Diagonalization of the overlap matrix:
Smallest eigenvalue                        ... 2.888e-03
Time for diagonalization                   ...    0.000 sec
Threshold for overlap eigenvalues          ... 1.000e-08
Number of eigenvalues below threshold      ... 0
Time for construction of square roots      ...    0.000 sec
Total time needed                          ...    0.000 sec

--------------
SCF ITERATIONS
--------------
ITER       Energy         Delta-E        Max-DP      RMS-DP      [F,P]     Damp
               ***  Starting incremental Fock matrix formation  ***
  0     -1.0612089246   0.000000000000 0.00282202  0.00043552  0.0354050 0.7000
                      *** Initiating the SOSCF procedure ***
                      *** Re-Reading the Fockian *** 
                      *** Removing any level shift *** 
ITER      Energy       Delta-E        Grad      Rot      Max-DP    RMS-DP
  1     -1.06146756  -0.0002586351  0.002542  0.002542  0.007622  0.001156
               *** Restarting incremental Fock matrix formation ***
  2     -1.06216414  -0.0006965767  0.002131  0.001645  0.000904  0.000177
  3     -1.06217768  -0.0000135404  0.000321  0.000351  0.000194  0.000044
                 **** Energy Check signals convergence ****
              ***Rediagonalizing the Fockian in SOSCF/NRSCF***

               *****************************************************
               *                     SUCCESS                       *
               *           SCF CONVERGED AFTER   4 CYCLES          *
               *****************************************************

Total Energy       :           -1.06217808 Eh             -28.90333 eV
  Last Energy change         ...   -4.0103e-07  Tolerance :   1.0000e-06
  Last MAX-Density change    ...    2.7849e-05  Tolerance :   1.0000e-05
             **** THE GBW FILE WAS UPDATED (orca.gbw) ****
             **** DENSITY FILE WAS UPDATED (orca.scfp) ****
             **** ENERGY FILE WAS UPDATED (orca.en.tmp) ****
             **** THE GBW FILE WAS UPDATED (orca.gbw) ****
             **** DENSITY FILE WAS UPDATED (orca.scfp) ****
Total SCF time: 0 days 0 hours 0 min 0 sec 


------------------------------------------------------------------------------- 
                              ORCA-MATRIX DRIVEN CI                            
------------------------------------------------------------------------------- 

--------------------------------
AUTOMATIC CHOICE OF INCORE LEVEL
--------------------------------

Memory available                           ...    256.00 MB
Memory needed for S+T                      ...      0.00 MB
Memory needed for J+K                      ...      0.01 MB
Memory needed for DIIS                     ...      0.04 MB
Memory needed for 3-ext                    ...      0.02 MB
Memory needed for 4-ext                    ...      0.12 MB
Memory needed for triples                  ...      0.08 MB
 -> Final InCoreLevel    ... 5
 -> check shows that triples correction can be computed


Wavefunction type
-----------------
Correlation treatment                      ...     QCISD     
Single excitations                         ... ON
Orbital optimization                       ... OFF
Calculation of Z vector                    ... OFF
Calculation of Brueckner orbitals          ... OFF
Perturbative triple excitations            ... ON
Calculation of F12 correction              ... OFF
Frozen core treatment                      ... chemical core (0 el)
Reference Wavefunction                     ... RHF
  Internal Orbitals:     0 ...    0 (  1 MO's/  2 electrons)
  Virtual  Orbitals:     1 ...   13 ( 13 MO's              )
Number of AO's                             ...     14
Number of electrons                        ...      2
Number of correlated electrons             ...      2

Algorithmic settings
--------------------
Integral transformation                    ... AO direct full transformation
K(C) Formation                             ... FULL-MO TRAFO
Maximum number of iterations               ...        50
Convergence tolerance (max. residuum)      ... 2.500e-05
Level shift for amplitude update           ... 2.000e-01
Maximum number of DIIS vectors             ...         7
DIIS turned on at iteration                ...         0
Damping before turning on DIIS             ...     0.500
Damping after turning on DIIS              ...     0.000
Pair specific amplitude update             ... OFF
Natural orbital iterations                 ... OFF
Perturbative natural orbital generation    ... OFF
Printlevel                                 ... 2

Memory handling:
----------------
Maximum memory for working arrays          ...    256 MB
Data storage in matrix containers          ... UNCOMPRESSED
Data type for integral storage             ... DOUBLE
In-Core Storage of quantities:
   Amplitudes+Sigma Vector      ... YES
   J+K operators                ... YES
   DIIS vectors                 ... YES
   3-external integrals         ... YES
   4-external integrals         ... YES


Initializing the integral package          ... done
Warning: reference  - re-canonicalizations have been set to INT 1 VIRT 1

--------------------------
CLOSED-SHELL FOCK OPERATOR
--------------------------

<ss|ss>:          666 b            0 skpd (  0.0%)    0.000 s ( 0.000 ms/b)
<ss|sp>:          576 b            0 skpd (  0.0%)    0.000 s ( 0.000 ms/b)
<ss|pp>:          108 b            0 skpd (  0.0%)    0.000 s ( 0.001 ms/b)
<sp|sp>:          136 b            0 skpd (  0.0%)    0.000 s ( 0.001 ms/b)
<sp|pp>:           48 b            0 skpd (  0.0%)    0.000 s ( 0.001 ms/b)
<pp|pp>:            6 b            0 skpd (  0.0%)    0.000 s ( 0.003 ms/b)
Recanonicalizing the internal orbitals
Recanonicalizing the virtual orbitals
Time needed for Fock operator              ...            0.001 sec
Reference energy                           ...     -1.062178081

------------------------------
PARTIAL COULOMB TRANSFORMATION
------------------------------

Transformation type                        ... one-operator
Dimension of the basis                     ...   14
Number of internal MOs                     ...   14 (0-13)
Pair cutoff                                ... 0.000e+00 Eh
Number of AO pairs included in the trafo   ...  105
Total Number of distinct AO pairs          ...  105
Memory devoted for trafo                   ...  256.0 MB 
Max. Number of MO pairs treated together   ... 319566      
Max. Number of MOs treated per batch       ... 22826      
Number Format for Storage                  ... Double (8 Byte)
AO-integral source                         ... DIRECT
Integral package used                      ... LIBINT

Starting integral evaluation:
<ss|**>:         1980 b        0 skpd     0.001 s (  0.000 ms/b)
<sp|**>:          880 b        0 skpd     0.001 s (  0.001 ms/b)
<pp|**>:          165 b        0 skpd     0.000 s (  0.001 ms/b)
Closing buffer AOJ ( 0.00 GB; CompressionRatio= 0.99)
Collecting buffer AOJ 
    ... done with AO integral generation
Number of MO pairs included in the trafo   ...  105
    ... Now sorting integrals
IBATCH = 1 of  1
Closing buffer JAO ( 0.00 GB; CompressionRatio= 0.99)
Collecting buffer JAO 
TOTAL TIME for half transformation         ...     0.002 sec
AO-integral generation                     ...     0.001 sec
Half transformation                        ...     0.001 sec
J-integral sorting                         ...     0.000 sec

-------------------------- SECOND HALF TRANSFORMATION -------------------------
Formation of (pq|rs)                       ... ok (     0.001 sec)
Integral sorting                           ... ok (     0.000 sec)

------------------
CLOSED SHELL GUESS
------------------

Initial guess performed in     0.000 sec
E(0)                                       ...     -1.062178081
E(MP2)                                     ...     -0.027076800
Initial E(tot)                             ...     -1.089254880
<T|T>                                      ...      0.007130556
Number of pairs included                   ... 1
Total number of pairs                      ... 1

---------------------------
RHF QUADRATIC CI ITERATIONS
---------------------------

Number of amplitudes to be optimized       ... 182

Iter       E(tot)           E(Corr)          Delta-E          Residual     Time
  0     -1.089254880     -0.027076800      0.000000000      0.026965731    0.00
                           *** Turning on DIIS ***
  1     -1.094260226     -0.032082146     -0.005005346      0.006714236    0.00
  2     -1.096096653     -0.033918572     -0.001836426      0.000985832    0.00
  3     -1.096194373     -0.034016292     -0.000097720      0.000218686    0.00
  4     -1.096202864     -0.034024783     -0.000008491      0.000030627    0.00
  5     -1.096203881     -0.034025800     -0.000001017      0.000003850    0.00
               --- The Quadratic CI iterations have converged ---

-------------------
QUADRATIC CI ENERGY
-------------------

E(0)                                       ...     -1.062178081
E(CORR)                                    ...     -0.034025800
E(TOT)                                     ...     -1.096203881
Singles Norm <S|S>**1/2                    ...      0.002984563  
T1 diagnostic                              ...      0.002110405  

------------------
LARGEST AMPLITUDES
------------------
   0->  7   0->  7       0.040877
   0->  6   0->  6       0.040877
   0->  5   0->  5       0.035355
   0->  4   0->  4       0.032346
   0->  3   0->  5       0.025843
   0->  5   0->  3       0.025843
   0->  8   0->  8       0.023113
   0->  4   0->  8       0.021759
   0->  8   0->  4       0.021759
   0->  3   0->  3       0.021012
   0->  5   0->  9       0.020460
   0->  9   0->  5       0.020460
   0->  9   0->  9       0.016762
   0->  1   0->  4       0.014915
   0->  4   0->  1       0.014915
   0->  3   0->  9       0.012597


        !!!!!!!!!!!!!!!!!!!!!!!!!!!!!!!!!!!!!!!!!!!!!!!!!!!!!!!!!!!!!!!!!!!!!!!!!! 
        !  Warning: Densities are linearized densities !                         !
        !!!!!!!!!!!!!!!!!!!!!!!!!!!!!!!!!!!!!!!!!!!!!!!!!!!!!!!!!!!!!!!!!!!!!!!!!! 

Trace of internal density part =     -0.023864282
Trace of external density part =      0.023864282
----------------------
RHF TRIPLES CORRECTION (Algorithm 1)
----------------------

Multiplier for the singles contribution    ...      2.000000000

Triples Correction (T)                     ...      0.000000000
Scaling of triples based on CCSD energies (Peterson et al. Molecular Physics 113, 1551 (2015))
E(T*) = f*E(T) where f = E(F12-CCSD)/E(CCSD) 
f = CCSD (with F12)/ CCSD (without F12)    ...      1.000000000
Scaled triples correction (T)              ...      0.000000000

Final correlation energy                   ...     -0.034025800
E(QCISD)                                   ...     -1.096203881
E(QCISD(T))                                ...     -1.096203881

NORM  =      1.011941049 sqrt=     1.005952806
W(HF) =      0.988199857
------------------------------------------------------------------------------
                           ORCA POPULATION ANALYSIS
------------------------------------------------------------------------------
Input electron density              ... orca.mdcip
BaseName (.gbw .S,...)              ... orca


------------------------------------------------------------------------------- 
                                     TIMINGS                                   
------------------------------------------------------------------------------- 


Total execution time                   ...        0.113 sec

Fock Matrix Formation                  ...        0.001 sec (  1.0%)
Initial Guess                          ...        0.000 sec (  0.0%)
DIIS Solver                            ...        0.000 sec (  0.1%)
State Vector Update                    ...        0.000 sec (  0.0%)
Sigma-vector construction              ...        0.001 sec (  1.1%)
Total Time for computing (T)           ...        0.000 sec (  0.0% of ALL)


-------------------------   --------------------
FINAL SINGLE POINT ENERGY        -1.096203880534
-------------------------   --------------------

Storing actual gbw-file in orca.003.gbw ... done

                            ***************************************
                            *     ORCA property calculations      *
                            ***************************************

                                    ---------------------
                                    Active property flags
                                    ---------------------
   (+) Dipole Moment


------------------------------------------------------------------------------
                       ORCA ELECTRIC PROPERTIES CALCULATION
------------------------------------------------------------------------------

Dipole Moment Calculation                       ... on
Quadrupole Moment Calculation                   ... off
Polarizability Calculation                      ... off
GBWName                                         ... orca.gbw
Electron density file                           ... orca.scfp
The origin for moment calculation is the CENTER OF MASS  = ( 0.472432,  0.000000  0.000000)

-------------
DIPOLE MOMENT
-------------
                                X             Y             Z
Electronic contribution:      0.00000       0.00000       0.00000
Nuclear contribution   :      0.00000       0.00000       0.00000
                        -----------------------------------------
Total Dipole Moment    :      0.00000       0.00000       0.00000
                        -----------------------------------------
Magnitude (a.u.)       :      0.00000
Magnitude (Debye)      :      0.00000



--------------------
Rotational spectrum 
--------------------
 
Rotational constants in cm-1:     0.000000   133.790832   133.790832 
Rotational constants in MHz :     0.000000 4010948.251497 4010948.251497 

 Dipole components along the rotational axes: 
x,y,z [a.u.] :     0.000000     0.000000     0.000000 
x,y,z [Debye]:     0.000000     0.000000     0.000000 

 

                           *** MDCI DENSITY ***

------------------------------------------------------------------------------
                       ORCA ELECTRIC PROPERTIES CALCULATION
------------------------------------------------------------------------------

Dipole Moment Calculation                       ... on
Quadrupole Moment Calculation                   ... off
Polarizability Calculation                      ... off
GBWName                                         ... orca.gbw
Electron density file                           ... orca.mdcip
The origin for moment calculation is the CENTER OF MASS  = ( 0.472432,  0.000000  0.000000)

-------------
DIPOLE MOMENT
-------------
                                X             Y             Z
Electronic contribution:      0.00000      -0.00000       0.00000
Nuclear contribution   :      0.00000       0.00000       0.00000
                        -----------------------------------------
Total Dipole Moment    :      0.00000      -0.00000       0.00000
                        -----------------------------------------
Magnitude (a.u.)       :      0.00000
Magnitude (Debye)      :      0.00000



--------------------
Rotational spectrum 
--------------------
 
Rotational constants in cm-1:     0.000000   133.790832   133.790832 
Rotational constants in MHz :     0.000000 4010948.251497 4010948.251497 

 Dipole components along the rotational axes: 
x,y,z [a.u.] :     0.000000    -0.000000     0.000000 
x,y,z [Debye]:     0.000000    -0.000000     0.000000 

 

         *************************************************************
                                TRAJECTORY STEP   4
                  R  :   0.55000000
         *************************************************************
---------------------------------
CARTESIAN COORDINATES (ANGSTROEM)
---------------------------------
  H      0.000000    0.000000    0.000000
  H      0.550000    0.000000    0.000000

----------------------------
CARTESIAN COORDINATES (A.U.)
----------------------------
  NO LB      ZA    FRAG     MASS         X           Y           Z
   0 H     1.0000    0     1.008    0.000000    0.000000    0.000000
   1 H     1.0000    0     1.008    1.039349    0.000000    0.000000

--------------------------------
INTERNAL COORDINATES (ANGSTROEM)
--------------------------------
 H      0   0   0     0.000000000000     0.00000000     0.00000000
 H      1   0   0     0.550000000000     0.00000000     0.00000000

---------------------------
INTERNAL COORDINATES (A.U.)
---------------------------
 H      0   0   0     0.000000000000     0.00000000     0.00000000
 H      1   0   0     1.039349373657     0.00000000     0.00000000


Diagonalization of the overlap matrix:
Smallest eigenvalue                        ... 3.469e-03
Time for diagonalization                   ...    0.000 sec
Threshold for overlap eigenvalues          ... 1.000e-08
Number of eigenvalues below threshold      ... 0
Time for construction of square roots      ...    0.000 sec
Total time needed                          ...    0.000 sec

--------------
SCF ITERATIONS
--------------
ITER       Energy         Delta-E        Max-DP      RMS-DP      [F,P]     Damp
               ***  Starting incremental Fock matrix formation  ***
  0     -1.0935990255   0.000000000000 0.00247017  0.00038859  0.0325984 0.7000
                      *** Initiating the SOSCF procedure ***
                      *** Re-Reading the Fockian *** 
                      *** Removing any level shift *** 
ITER      Energy       Delta-E        Grad      Rot      Max-DP    RMS-DP
  1     -1.09382082  -0.0002217989  0.002454  0.002454  0.006673  0.001037
               *** Restarting incremental Fock matrix formation ***
  2     -1.09442101  -0.0006001868  0.001967  0.001631  0.000795  0.000175
  3     -1.09443369  -0.0000126802  0.000319  0.000356  0.000223  0.000046
                 **** Energy Check signals convergence ****
              ***Rediagonalizing the Fockian in SOSCF/NRSCF***

               *****************************************************
               *                     SUCCESS                       *
               *           SCF CONVERGED AFTER   4 CYCLES          *
               *****************************************************

Total Energy       :           -1.09443410 Eh             -29.78107 eV
  Last Energy change         ...   -4.0495e-07  Tolerance :   1.0000e-06
  Last MAX-Density change    ...    2.7363e-05  Tolerance :   1.0000e-05
             **** THE GBW FILE WAS UPDATED (orca.gbw) ****
             **** DENSITY FILE WAS UPDATED (orca.scfp) ****
             **** ENERGY FILE WAS UPDATED (orca.en.tmp) ****
             **** THE GBW FILE WAS UPDATED (orca.gbw) ****
             **** DENSITY FILE WAS UPDATED (orca.scfp) ****
Total SCF time: 0 days 0 hours 0 min 0 sec 


------------------------------------------------------------------------------- 
                              ORCA-MATRIX DRIVEN CI                            
------------------------------------------------------------------------------- 

--------------------------------
AUTOMATIC CHOICE OF INCORE LEVEL
--------------------------------

Memory available                           ...    256.00 MB
Memory needed for S+T                      ...      0.00 MB
Memory needed for J+K                      ...      0.01 MB
Memory needed for DIIS                     ...      0.04 MB
Memory needed for 3-ext                    ...      0.02 MB
Memory needed for 4-ext                    ...      0.12 MB
Memory needed for triples                  ...      0.08 MB
 -> Final InCoreLevel    ... 5
 -> check shows that triples correction can be computed


Wavefunction type
-----------------
Correlation treatment                      ...     QCISD     
Single excitations                         ... ON
Orbital optimization                       ... OFF
Calculation of Z vector                    ... OFF
Calculation of Brueckner orbitals          ... OFF
Perturbative triple excitations            ... ON
Calculation of F12 correction              ... OFF
Frozen core treatment                      ... chemical core (0 el)
Reference Wavefunction                     ... RHF
  Internal Orbitals:     0 ...    0 (  1 MO's/  2 electrons)
  Virtual  Orbitals:     1 ...   13 ( 13 MO's              )
Number of AO's                             ...     14
Number of electrons                        ...      2
Number of correlated electrons             ...      2

Algorithmic settings
--------------------
Integral transformation                    ... AO direct full transformation
K(C) Formation                             ... FULL-MO TRAFO
Maximum number of iterations               ...        50
Convergence tolerance (max. residuum)      ... 2.500e-05
Level shift for amplitude update           ... 2.000e-01
Maximum number of DIIS vectors             ...         7
DIIS turned on at iteration                ...         0
Damping before turning on DIIS             ...     0.500
Damping after turning on DIIS              ...     0.000
Pair specific amplitude update             ... OFF
Natural orbital iterations                 ... OFF
Perturbative natural orbital generation    ... OFF
Printlevel                                 ... 2

Memory handling:
----------------
Maximum memory for working arrays          ...    256 MB
Data storage in matrix containers          ... UNCOMPRESSED
Data type for integral storage             ... DOUBLE
In-Core Storage of quantities:
   Amplitudes+Sigma Vector      ... YES
   J+K operators                ... YES
   DIIS vectors                 ... YES
   3-external integrals         ... YES
   4-external integrals         ... YES


Initializing the integral package          ... done
Warning: reference  - re-canonicalizations have been set to INT 1 VIRT 1

--------------------------
CLOSED-SHELL FOCK OPERATOR
--------------------------

<ss|ss>:          666 b            0 skpd (  0.0%)    0.000 s ( 0.000 ms/b)
<ss|sp>:          576 b            0 skpd (  0.0%)    0.000 s ( 0.000 ms/b)
<ss|pp>:          108 b            0 skpd (  0.0%)    0.000 s ( 0.001 ms/b)
<sp|sp>:          136 b            0 skpd (  0.0%)    0.000 s ( 0.001 ms/b)
<sp|pp>:           48 b            0 skpd (  0.0%)    0.000 s ( 0.001 ms/b)
<pp|pp>:            6 b            0 skpd (  0.0%)    0.000 s ( 0.003 ms/b)
Recanonicalizing the internal orbitals
Recanonicalizing the virtual orbitals
Time needed for Fock operator              ...            0.001 sec
Reference energy                           ...     -1.094434099

------------------------------
PARTIAL COULOMB TRANSFORMATION
------------------------------

Transformation type                        ... one-operator
Dimension of the basis                     ...   14
Number of internal MOs                     ...   14 (0-13)
Pair cutoff                                ... 0.000e+00 Eh
Number of AO pairs included in the trafo   ...  105
Total Number of distinct AO pairs          ...  105
Memory devoted for trafo                   ...  256.0 MB 
Max. Number of MO pairs treated together   ... 319566      
Max. Number of MOs treated per batch       ... 22826      
Number Format for Storage                  ... Double (8 Byte)
AO-integral source                         ... DIRECT
Integral package used                      ... LIBINT

Starting integral evaluation:
<ss|**>:         1980 b        0 skpd     0.001 s (  0.000 ms/b)
<sp|**>:          880 b        0 skpd     0.001 s (  0.001 ms/b)
<pp|**>:          165 b        0 skpd     0.000 s (  0.001 ms/b)
Closing buffer AOJ ( 0.00 GB; CompressionRatio= 0.99)
Collecting buffer AOJ 
    ... done with AO integral generation
Number of MO pairs included in the trafo   ...  105
    ... Now sorting integrals
IBATCH = 1 of  1
Closing buffer JAO ( 0.00 GB; CompressionRatio= 0.99)
Collecting buffer JAO 
TOTAL TIME for half transformation         ...     0.002 sec
AO-integral generation                     ...     0.001 sec
Half transformation                        ...     0.001 sec
J-integral sorting                         ...     0.000 sec

-------------------------- SECOND HALF TRANSFORMATION -------------------------
Formation of (pq|rs)                       ... ok (     0.001 sec)
[...]
Time needed for Fock operator              ...            0.001 sec
Reference energy                           ...     -0.923988151

------------------------------
PARTIAL COULOMB TRANSFORMATION
------------------------------

Transformation type                        ... one-operator
Dimension of the basis                     ...   14
Number of internal MOs                     ...   14 (0-13)
Pair cutoff                                ... 0.000e+00 Eh
Number of AO pairs included in the trafo   ...  105
Total Number of distinct AO pairs          ...  105
Memory devoted for trafo                   ...  256.0 MB 
Max. Number of MO pairs treated together   ... 319566      
Max. Number of MOs treated per batch       ... 22826      
Number Format for Storage                  ... Double (8 Byte)
AO-integral source                         ... DIRECT
Integral package used                      ... LIBINT

Starting integral evaluation:
<ss|**>:         1980 b        0 skpd     0.001 s (  0.000 ms/b)
<sp|**>:          880 b        0 skpd     0.001 s (  0.001 ms/b)
<pp|**>:          165 b        0 skpd     0.000 s (  0.001 ms/b)
Closing buffer AOJ ( 0.00 GB; CompressionRatio= 0.99)
Collecting buffer AOJ 
    ... done with AO integral generation
Number of MO pairs included in the trafo   ...  105
    ... Now sorting integrals
IBATCH = 1 of  1
Closing buffer JAO ( 0.00 GB; CompressionRatio= 0.99)
Collecting buffer JAO 
TOTAL TIME for half transformation         ...     0.002 sec
AO-integral generation                     ...     0.001 sec
Half transformation                        ...     0.001 sec
J-integral sorting                         ...     0.000 sec

-------------------------- SECOND HALF TRANSFORMATION -------------------------
Formation of (pq|rs)                       ... ok (     0.001 sec)
Integral sorting                           ... ok (     0.000 sec)

------------------
CLOSED SHELL GUESS
------------------

Initial guess performed in     0.000 sec
E(0)                                       ...     -0.923988151
E(MP2)                                     ...     -0.048839313
Initial E(tot)                             ...     -0.972827464
<T|T>                                      ...      0.054817385
Number of pairs included                   ... 1
Total number of pairs                      ... 1

---------------------------
RHF QUADRATIC CI ITERATIONS
---------------------------

Number of amplitudes to be optimized       ... 182

Iter       E(tot)           E(Corr)          Delta-E          Residual     Time
  0     -0.972827464     -0.048839313      0.000000000      0.074226238    0.00
                           *** Turning on DIIS ***
  1     -0.986883407     -0.062895255     -0.014055943      0.054268683    0.00
  2     -1.006928495     -0.082940344     -0.020045089      0.021410669    0.00
  3     -1.019134637     -0.095146486     -0.012206142      0.002095353    0.00
  4     -1.018681654     -0.094693503      0.000452983      0.000567145    0.00
  5     -1.018824937     -0.094836786     -0.000143283      0.000128863    0.00
  6     -1.018843546     -0.094855395     -0.000018609      0.000047052    0.00
  7     -1.018837088     -0.094848937      0.000006458      0.000010117    0.00
               --- The Quadratic CI iterations have converged ---

-------------------
QUADRATIC CI ENERGY
-------------------

E(0)                                       ...     -0.923988151
E(CORR)                                    ...     -0.094848937
E(TOT)                                     ...     -1.018837088
Singles Norm <S|S>**1/2                    ...      0.086199142  
T1 diagnostic                              ...      0.060951998  

------------------
LARGEST AMPLITUDES
------------------
   0->  1   0->  1       0.465570
   0->  3   0->  1       0.143867
   0->  1   0->  3       0.143867
   0->  4   0->  1       0.090987
   0->  1   0->  4       0.090987
   0->  5  -1-> -1       0.066871
   0->  2  -1-> -1       0.051236
   0->  3   0->  3       0.045076
   0->  3   0->  4       0.029626
   0->  4   0->  3       0.029626
   0->  4   0->  4       0.022329
   0->  6  -1-> -1       0.013596
   0->  6   0->  6       0.012449
   0-> 12  -1-> -1       0.012189
   0->  1   0-> 13       0.010414
   0-> 13   0->  1       0.010414


        !!!!!!!!!!!!!!!!!!!!!!!!!!!!!!!!!!!!!!!!!!!!!!!!!!!!!!!!!!!!!!!!!!!!!!!!!! 
        !  Warning: Densities are linearized densities !                         !
        !!!!!!!!!!!!!!!!!!!!!!!!!!!!!!!!!!!!!!!!!!!!!!!!!!!!!!!!!!!!!!!!!!!!!!!!!! 

Trace of internal density part =     -0.574875286
Trace of external density part =      0.574875286
----------------------
RHF TRIPLES CORRECTION (Algorithm 1)
----------------------

Multiplier for the singles contribution    ...      2.000000000

Triples Correction (T)                     ...      0.000000000
Scaling of triples based on CCSD energies (Peterson et al. Molecular Physics 113, 1551 (2015))
E(T*) = f*E(T) where f = E(F12-CCSD)/E(CCSD) 
f = CCSD (with F12)/ CCSD (without F12)    ...      1.000000000
Scaled triples correction (T)              ...      0.000000000

Final correlation energy                   ...     -0.094848937
E(QCISD)                                   ...     -1.018837088
E(QCISD(T))                                ...     -1.018837088

NORM  =      1.294867935 sqrt=     1.137922640
W(HF) =      0.772279530
------------------------------------------------------------------------------
                           ORCA POPULATION ANALYSIS
------------------------------------------------------------------------------
Input electron density              ... orca.mdcip
BaseName (.gbw .S,...)              ... orca


------------------------------------------------------------------------------- 
                                     TIMINGS                                   
------------------------------------------------------------------------------- 


Total execution time                   ...        0.159 sec

Fock Matrix Formation                  ...        0.001 sec (  0.7%)
Initial Guess                          ...        0.000 sec (  0.0%)
DIIS Solver                            ...        0.000 sec (  0.1%)
State Vector Update                    ...        0.000 sec (  0.0%)
Sigma-vector construction              ...        0.002 sec (  1.0%)
Total Time for computing (T)           ...        0.000 sec (  0.0% of ALL)


-------------------------   --------------------
FINAL SINGLE POINT ENERGY        -1.018837088185
-------------------------   --------------------

Storing actual gbw-file in orca.033.gbw ... done

                            ***************************************
                            *     ORCA property calculations      *
                            ***************************************

                                    ---------------------
                                    Active property flags
                                    ---------------------
   (+) Dipole Moment


------------------------------------------------------------------------------
                       ORCA ELECTRIC PROPERTIES CALCULATION
------------------------------------------------------------------------------

Dipole Moment Calculation                       ... on
Quadrupole Moment Calculation                   ... off
Polarizability Calculation                      ... off
GBWName                                         ... orca.gbw
Electron density file                           ... orca.scfp
The origin for moment calculation is the CENTER OF MASS  = ( 1.889726,  0.000000  0.000000)

-------------
DIPOLE MOMENT
-------------
                                X             Y             Z
Electronic contribution:     -0.00000      -0.00000      -0.00000
Nuclear contribution   :      0.00000       0.00000       0.00000
                        -----------------------------------------
Total Dipole Moment    :     -0.00000      -0.00000      -0.00000
                        -----------------------------------------
Magnitude (a.u.)       :      0.00000
Magnitude (Debye)      :      0.00000



--------------------
Rotational spectrum 
--------------------
 
Rotational constants in cm-1:     0.000000     8.361927     8.361927 
Rotational constants in MHz :     0.000000 250684.265719 250684.265719 

 Dipole components along the rotational axes: 
x,y,z [a.u.] :    -0.000000    -0.000000    -0.000000 
x,y,z [Debye]:    -0.000000    -0.000000    -0.000000 

 

                           *** MDCI DENSITY ***

------------------------------------------------------------------------------
                       ORCA ELECTRIC PROPERTIES CALCULATION
------------------------------------------------------------------------------

Dipole Moment Calculation                       ... on
Quadrupole Moment Calculation                   ... off
Polarizability Calculation                      ... off
GBWName                                         ... orca.gbw
Electron density file                           ... orca.mdcip
The origin for moment calculation is the CENTER OF MASS  = ( 1.889726,  0.000000  0.000000)

-------------
DIPOLE MOMENT
-------------
                                X             Y             Z
Electronic contribution:     -0.00000       0.00000      -0.00000
Nuclear contribution   :      0.00000       0.00000       0.00000
                        -----------------------------------------
Total Dipole Moment    :     -0.00000       0.00000      -0.00000
                        -----------------------------------------
Magnitude (a.u.)       :      0.00000
Magnitude (Debye)      :      0.00000



--------------------
Rotational spectrum 
--------------------
 
Rotational constants in cm-1:     0.000000     8.361927     8.361927 
Rotational constants in MHz :     0.000000 250684.265719 250684.265719 

 Dipole components along the rotational axes: 
x,y,z [a.u.] :    -0.000000     0.000000    -0.000000 
x,y,z [Debye]:    -0.000000     0.000000    -0.000000 

 
                              **** TRAJECTORY DONE ***

                         SUMMARY OF THE CALCULATED SURFACE

------------------
TRAJECTORY RESULTS
------------------

Column   1: R

The Calculated Surface using the 'Actual Energy'
   0.40000000  -0.97166853
   0.45000000  -1.04647862
   0.50000000  -1.09620388
   0.55000000  -1.12874393
   0.60000000  -1.14924894
   0.65000000  -1.16119539
   0.70000000  -1.16699324
   0.75000000  -1.16834768
   0.80000000  -1.16648660
   0.85000000  -1.16230872
   0.90000000  -1.15648178
   0.95000000  -1.14950807
   1.00000000  -1.14177011
   1.05000000  -1.13355761
   1.10000000  -1.12509549
   1.15000000  -1.11655650
   1.20000000  -1.10807412
   1.25000000  -1.09975152
   1.30000000  -1.09166822
   1.35000000  -1.08388511
   1.40000000  -1.07644816
   1.45000000  -1.06939124
   1.50000000  -1.06273822
   1.55000000  -1.05650457
   1.60000000  -1.05069848
   1.65000000  -1.04532179
   1.70000000  -1.04037071
   1.75000000  -1.03583645
   1.80000000  -1.03170587
   1.85000000  -1.02795968
   1.90000000  -1.02458179
   1.95000000  -1.02154882
   2.00000000  -1.01883709

                        *******************************
                        *   FIT OF THE ACT-ENERGY PES *
                        *******************************
-------------------------------
POTENTIAL ENERGY SURFACE =   0
-------------------------------

Minimum found after 15 iterations
Equilibrium distance and its energy from the interpolated PES:
  Re      =   0.74343 Angstroem  (  1.40488 Bohr)
  E(Re)   =    -1.168376 Eh 
  dE/dR   = -3.001e-09 (1.361e-02 CHEB)
  d2E/dR2 =    0.372050 (   0.403403 CHEB) (   0.483701 NUM)
  d3E/dR3 =   -1.406808 (  27.950512 CHEB)

Spectroscopic constants:
  we =    4434.3 cm**-1 (based on SPLINE)
  we =    4617.3 cm**-1 (based on CHEB)
  we =    5056.0 cm**-1 (based on NUM)

Performing Morse fit ...
Morse-Fit Results:
 Te(adiabatic)   = 2142981.4 cm**-1         =265.696 eV
 d2E/dR**2 (Morse)=  -4072.382164335 
 d3E/dR**3 (Morse)= 177086.621470195 
 d4E/dR**4 (Morse)= -5989333.670012612 
 E0               =      8.595766030 Eh  RMS=3.05e-02
 Re               =   0.21653 Angstroem      =  0.40919 Bohr RMS=5.84e-04)
 De(Morse)        = -263.71644 eV             =-2127016.8 cm**-1 RMS=3.05e-02
 D0(Morse)        =      -nan eV
 beta             =  14.49492 au          RMS=3.37e-02
 we               =     -nan cm**-1
 wexe             =  25282.2 cm**-1
 Displacement   =   -0.5269 Angstroem      = -0.99569 Bohr

The Calculated Surface using the SCF energy
   0.40000000  -0.93818966
   0.45000000  -1.01272199
   0.50000000  -1.06217808
   0.55000000  -1.09443410
   0.60000000  -1.11461824
   0.65000000  -1.12618755
   0.70000000  -1.13153639
   0.75000000  -1.13235868
   0.80000000  -1.12987395
   0.85000000  -1.12497353
   0.90000000  -1.11831730
   0.95000000  -1.11039881
   1.00000000  -1.10159005
   1.05000000  -1.09217295
   1.10000000  -1.08236199
   1.15000000  -1.07232094
   1.20000000  -1.06217516
   1.25000000  -1.05202085
   1.30000000  -1.04193199
   1.35000000  -1.03196545
   1.40000000  -1.02216492
   1.45000000  -1.01256383
   1.50000000  -1.00318759
   1.55000000  -0.99405523
   1.60000000  -0.98518064
   1.65000000  -0.97657348
   1.70000000  -0.96823982
   1.75000000  -0.96018271
   1.80000000  -0.95240252
   1.85000000  -0.94489739
   1.90000000  -0.93766361
   1.95000000  -0.93069597
   2.00000000  -0.92398815

                        *******************************
                        *       FIT OF THE SCF PES    *
                        *******************************
-------------------------------
POTENTIAL ENERGY SURFACE =   0
-------------------------------

Minimum found after 13 iterations
Equilibrium distance and its energy from the interpolated PES:
  Re      =   0.73538 Angstroem  (  1.38967 Bohr)
  E(Re)   =    -1.132508 Eh 
  dE/dR   = -6.899e-10 (1.306e-02 CHEB)
  d2E/dR2 =    0.403460 (   0.437984 CHEB) (   0.517019 NUM)
  d3E/dR3 =   -1.397547 (  29.436055 CHEB)

Spectroscopic constants:
  we =    4617.6 cm**-1 (based on SPLINE)
  we =    4811.1 cm**-1 (based on CHEB)
  we =    5227.2 cm**-1 (based on NUM)

Performing Morse fit ...
Morse-Fit Results:
 Te(adiabatic)   = 4254452.5 cm**-1         =527.485 eV
 d2E/dR**2 (Morse)= -14939.301190413 
 d3E/dR**3 (Morse)= 881849.885564836 
 d4E/dR**4 (Morse)= -40486904.495227098 
 E0               =     18.252204010 Eh  RMS=7.83e-02
 Re               =   0.24103 Angstroem      =  0.45548 Bohr RMS=7.59e-04)
 De(Morse)        = -525.00647 eV             =-4234463.2 cm**-1 RMS=7.83e-02
 D0(Morse)        =      -nan eV
 beta             =  19.67629 au          RMS=6.30e-02
 we               =     -nan cm**-1
 wexe             =  46587.5 cm**-1
 Displacement   =   -0.4943 Angstroem      = -0.93418 Bohr

The Calculated Surface using the MDCI energy
   0.40000000  -0.97166853
   0.45000000  -1.04647862
   0.50000000  -1.09620388
   0.55000000  -1.12874393
   0.60000000  -1.14924894
   0.65000000  -1.16119539
   0.70000000  -1.16699324
   0.75000000  -1.16834768
   0.80000000  -1.16648660
   0.85000000  -1.16230872
   0.90000000  -1.15648178
   0.95000000  -1.14950807
   1.00000000  -1.14177011
   1.05000000  -1.13355761
   1.10000000  -1.12509549
   1.15000000  -1.11655650
   1.20000000  -1.10807412
   1.25000000  -1.09975152
   1.30000000  -1.09166822
   1.35000000  -1.08388511
   1.40000000  -1.07644816
   1.45000000  -1.06939124
   1.50000000  -1.06273822
   1.55000000  -1.05650457
   1.60000000  -1.05069848
   1.65000000  -1.04532179
   1.70000000  -1.04037071
   1.75000000  -1.03583645
   1.80000000  -1.03170587
   1.85000000  -1.02795968
   1.90000000  -1.02458179
   1.95000000  -1.02154882
   2.00000000  -1.01883709

                        *******************************
                        *      FIT OF THE MDCI PES    *
                        *******************************
-------------------------------
POTENTIAL ENERGY SURFACE =   0
-------------------------------

Minimum found after 15 iterations
Equilibrium distance and its energy from the interpolated PES:
  Re      =   0.74343 Angstroem  (  1.40488 Bohr)
  E(Re)   =    -1.168376 Eh 
  dE/dR   = -3.001e-09 (1.361e-02 CHEB)
  d2E/dR2 =    0.372050 (   0.403403 CHEB) (   0.483701 NUM)
  d3E/dR3 =   -1.406808 (  27.950512 CHEB)

Spectroscopic constants:
  we =    4434.3 cm**-1 (based on SPLINE)
  we =    4617.3 cm**-1 (based on CHEB)
  we =    5056.0 cm**-1 (based on NUM)

Performing Morse fit ...
Morse-Fit Results:
 Te(adiabatic)   = 2142981.4 cm**-1         =265.696 eV
 d2E/dR**2 (Morse)=  -4072.382164335 
 d3E/dR**3 (Morse)= 177086.621470195 
 d4E/dR**4 (Morse)= -5989333.670012612 
 E0               =      8.595766030 Eh  RMS=3.05e-02
 Re               =   0.21653 Angstroem      =  0.40919 Bohr RMS=5.84e-04)
 De(Morse)        = -263.71644 eV             =-2127016.8 cm**-1 RMS=3.05e-02
 D0(Morse)        =      -nan eV
 beta             =  14.49492 au          RMS=3.37e-02
 we               =     -nan cm**-1
 wexe             =  25282.2 cm**-1
 Displacement   =   -0.5269 Angstroem      = -0.99569 Bohr

The Calculated Surface using the MDCI energy minus triple correction
   0.40000000  -0.97166853
   0.45000000  -1.04647862
   0.50000000  -1.09620388
   0.55000000  -1.12874393
   0.60000000  -1.14924894
   0.65000000  -1.16119539
   0.70000000  -1.16699324
   0.75000000  -1.16834768
   0.80000000  -1.16648660
   0.85000000  -1.16230872
   0.90000000  -1.15648178
   0.95000000  -1.14950807
   1.00000000  -1.14177011
   1.05000000  -1.13355761
   1.10000000  -1.12509549
   1.15000000  -1.11655650
   1.20000000  -1.10807412
   1.25000000  -1.09975152
   1.30000000  -1.09166822
   1.35000000  -1.08388511
   1.40000000  -1.07644816
   1.45000000  -1.06939124
   1.50000000  -1.06273822
   1.55000000  -1.05650457
   1.60000000  -1.05069848
   1.65000000  -1.04532179
   1.70000000  -1.04037071
   1.75000000  -1.03583645
   1.80000000  -1.03170587
   1.85000000  -1.02795968
   1.90000000  -1.02458179
   1.95000000  -1.02154882
   2.00000000  -1.01883709

                        *******************************
                        *      FIT OF THE MDCI1 PES   *
                        *******************************
-------------------------------
POTENTIAL ENERGY SURFACE =   0
-------------------------------

Minimum found after 15 iterations
Equilibrium distance and its energy from the interpolated PES:
  Re      =   0.74343 Angstroem  (  1.40488 Bohr)
  E(Re)   =    -1.168376 Eh 
  dE/dR   = -3.001e-09 (1.361e-02 CHEB)
  d2E/dR2 =    0.372050 (   0.403403 CHEB) (   0.483701 NUM)
  d3E/dR3 =   -1.406808 (  27.950512 CHEB)

Spectroscopic constants:
  we =    4434.3 cm**-1 (based on SPLINE)
  we =    4617.3 cm**-1 (based on CHEB)
  we =    5056.0 cm**-1 (based on NUM)

Performing Morse fit ...
Morse-Fit Results:
 Te(adiabatic)   = 2142981.4 cm**-1         =265.696 eV
 d2E/dR**2 (Morse)=  -4072.382164335 
 d3E/dR**3 (Morse)= 177086.621470195 
 d4E/dR**4 (Morse)= -5989333.670012612 
 E0               =      8.595766030 Eh  RMS=3.05e-02
 Re               =   0.21653 Angstroem      =  0.40919 Bohr RMS=5.84e-04)
 De(Morse)        = -263.71644 eV             =-2127016.8 cm**-1 RMS=3.05e-02
 D0(Morse)        =      -nan eV
 beta             =  14.49492 au          RMS=3.37e-02
 we               =     -nan cm**-1
 wexe             =  25282.2 cm**-1
 Displacement   =   -0.5269 Angstroem      = -0.99569 Bohr


Timings for individual modules:

Sum of individual times         ...       44.616 sec (=   0.744 min)
GTO integral calculation        ...        7.930 sec (=   0.132 min)  17.8 %
SCF iterations                  ...       21.671 sec (=   0.361 min)  48.6 %
MDCI module                     ...       15.015 sec (=   0.250 min)  33.7 %
                             ****ORCA TERMINATED NORMALLY****
TOTAL RUN TIME: 0 days 0 hours 0 minutes 51 seconds 351 msec
