
                                 *****************
                                 * O   R   C   A *
                                 *****************

           --- An Ab Initio, DFT and Semiempirical electronic structure package ---

                  #######################################################
                  #                        -***-                        #
                  #          Department of theory and spectroscopy      #
                  #               Directorship: Frank Neese             #
                  #        Max Planck Institute fuer Kohlenforschung    #
                  #                Kaiser Wilhelm Platz 1               #
                  #                 D-45470 Muelheim/Ruhr               #
                  #                      Germany                        #
                  #                                                     #
                  #                  All rights reserved                #
                  #                        -***-                        #
                  #######################################################


                         Program Version 4.2.1 -  RELEASE  -


 With contributions from (in alphabetic order):
   Daniel Aravena         : Magnetic Suceptibility
   Michael Atanasov       : Ab Initio Ligand Field Theory (pilot matlab implementation)
   Alexander A. Auer      : GIAO ZORA, VPT2
   Ute Becker             : Parallelization
   Giovanni Bistoni       : ED, misc. LED, open-shell LED, HFLD
   Martin Brehm           : Molecular dynamics
   Dmytro Bykov           : SCF Hessian
   Vijay G. Chilkuri      : MRCI spin determinant printing, contributions to CSF-ICE
   Dipayan Datta          : RHF DLPNO-CCSD density
   Achintya Kumar Dutta   : EOM-CC, STEOM-CC
   Dmitry Ganyushin       : Spin-Orbit,Spin-Spin,Magnetic field MRCI
   Miquel Garcia          : C-PCM Hessian, Gaussian charge scheme
   Yang Guo               : DLPNO-NEVPT2, CIM, IAO-localization
   Andreas Hansen         : Spin unrestricted coupled pair/coupled cluster methods
   Benjamin Helmich-Paris : CASSCF linear response (MC-RPA)
   Lee Huntington         : MR-EOM, pCC
   Robert Izsak           : Overlap fitted RIJCOSX, COSX-SCS-MP3, EOM
   Christian Kollmar      : KDIIS, OOCD, Brueckner-CCSD(T), CCSD density
   Simone Kossmann        : Meta GGA functionals, TD-DFT gradient, OOMP2, MP2 Hessian
   Martin Krupicka        : AUTO-CI
   Lucas Lang             : DCDCAS
   Dagmar Lenk            : GEPOL surface, SMD
   Dimitrios Liakos       : Extrapolation schemes; Compound Job, initial MDCI parallelization
   Dimitrios Manganas     : Further ROCIS development; embedding schemes
   Dimitrios Pantazis     : SARC Basis sets
   Taras Petrenko         : DFT Hessian,TD-DFT gradient, ASA, ECA, R-Raman, ABS, FL, XAS/XES, NRVS
   Peter Pinski           : DLPNO-MP2, DLPNO-MP2 Gradient
   Christoph Reimann      : Effective Core Potentials
   Marius Retegan         : Local ZFS, SOC
   Christoph Riplinger    : Optimizer, TS searches, QM/MM, DLPNO-CCSD(T), (RO)-DLPNO pert. Triples
   Tobias Risthaus        : Range-separated hybrids, TD-DFT gradient, RPA, STAB
   Michael Roemelt        : Original ROCIS implementation
   Masaaki Saitow         : Open-shell DLPNO-CCSD energy and density
   Barbara Sandhoefer     : DKH picture change effects
   Avijit Sen             : IP-ROCIS
   Kantharuban Sivalingam : CASSCF convergence, NEVPT2, FIC-MRCI
   Bernardo de Souza      : ESD, SOC TD-DFT
   Georgi Stoychev        : AutoAux, RI-MP2 NMR
   Willem Van den Heuvel  : Paramagnetic NMR
   Boris Wezisla          : Elementary symmetry handling
   Frank Wennmohs         : Technical directorship


 We gratefully acknowledge several colleagues who have allowed us to
 interface, adapt or use parts of their codes:
   Stefan Grimme, W. Hujo, H. Kruse,             : VdW corrections, initial TS optimization,
                  C. Bannwarth                     DFT functionals, gCP, sTDA/sTD-DF
   Ed Valeev, F. Pavosevic, A. Kumar             : LibInt (2-el integral package), F12 methods
   Garnet Chan, S. Sharma, J. Yang, R. Olivares  : DMRG
   Ulf Ekstrom                                   : XCFun DFT Library
   Mihaly Kallay                                 : mrcc  (arbitrary order and MRCC methods)
   Andreas Klamt, Michael Diedenhofen            : otool_cosmo (COSMO solvation model)
   Jiri Pittner, Ondrej Demel                    : Mk-CCSD
   Frank Weinhold                                : gennbo (NPA and NBO analysis)
   Christopher J. Cramer and Donald G. Truhlar   : smd solvation model
   Lars Goerigk                                  : TD-DFT with DH, B97 family of functionals
   V. Asgeirsson, H. Jonsson                     : NEB implementation
   FAccTs GmbH                                   : IRC, NEB, NEB-TS, Multilevel, MM, QM/MM, CI optimization
   S Lehtola, MJT Oliveira, MAL Marques          : LibXC Library


 Your calculation uses the libint2 library for the computation of 2-el integrals
 For citations please refer to: http://libint.valeyev.net

 Your ORCA version has been built with support for libXC version: 4.2.3
 For citations please refer to: https://tddft.org/programs/libxc/

 This ORCA versions uses:
   CBLAS   interface :  Fast vector & matrix operations
   LAPACKE interface :  Fast linear algebra routines
   SCALAPACK package :  Parallel linear algebra routines


----- Orbital basis set information -----
Your calculation utilizes the basis: 6-31G
   H-He, Li-Ne : W. J. Hehre, R. Ditchfield and J.A. Pople, J. Chem. Phys. 56, 2257 (1972).
                 Note: He and Ne are unpublished basis sets taken from the Gaussian program.
                 Note: Li and B from J. D. Dill and J. A. Pople, J. Chem. Phys. 62, 2921 (1975).
   Na - Ar     : M. M. Francl, W. J. Pietro, W. J. Hehre, J. S. Binkley, M. S. Gordon, 
                 D. J. DeFrees and J. A. Pople, J. Chem. Phys. 77, 3654 (1982).
   K - Zn      : V. A. Rassolov, J. A. Pople, M. A. Ratner, and T. L. Windus, J. Chem. Phys. 109, 1223 (1998).

================================================================================
                                        WARNINGS
                       Please study these warnings very carefully!
================================================================================


WARNING: Geometry Optimization
  ===> : Switching off AutoStart
         For restart on a previous wavefunction, please use MOREAD

INFO   : the flag for use of LIBINT has been found!

================================================================================
                                       INPUT FILE
================================================================================
NAME = orca.inp
|  1> !RHF 6-31G OPT
|  2> *xyz 0 1
|  3> C      0.26399   -0.46477   -0.00000
|  4> H     -0.68724    0.10613    0.00000
|  5> H      1.11931    0.24176   -0.00000
|  6> **                         ****END OF INPUT****
================================================================================

                       *****************************
                       * Geometry Optimization Run *
                       *****************************

Geometry optimization settings:
Update method            Update   .... BFGS
Choice of coordinates    CoordSys .... Z-matrix Internals
Initial Hessian          InHess   .... Almoef's Model

Convergence Tolerances:
Energy Change            TolE     ....  5.0000e-06 Eh
Max. Gradient            TolMAXG  ....  3.0000e-04 Eh/bohr
RMS Gradient             TolRMSG  ....  1.0000e-04 Eh/bohr
Max. Displacement        TolMAXD  ....  4.0000e-03 bohr
RMS Displacement         TolRMSD  ....  2.0000e-03 bohr
Strict Convergence                ....  False
------------------------------------------------------------------------------
                        ORCA OPTIMIZATION COORDINATE SETUP
------------------------------------------------------------------------------

The optimization will be done in new redundant internal coordinates
Making redundant internal coordinates   ...  (new redundants) done
Evaluating the initial hessian          ...  (Almloef) done
Evaluating the coordinates              ...  done
Calculating the B-matrix                .... done
Calculating the G-matrix                .... done
Diagonalizing the G-matrix              .... done
The first mode is                       ....    0
The number of degrees of freedom        ....    3

    -----------------------------------------------------------------
                    Redundant Internal Coordinates


    -----------------------------------------------------------------
         Definition                    Initial Value    Approx d2E/dq
    -----------------------------------------------------------------
      1. B(H   1,C   0)                  1.1094         0.335331   
      2. B(H   2,C   0)                  1.1094         0.335336   
      3. A(H   1,C   0,H   2)          109.4709         0.284433   
    -----------------------------------------------------------------

Number of atoms                         .... 3
Number of degrees of freedom            .... 3

         *************************************************************
         *                GEOMETRY OPTIMIZATION CYCLE   1            *
         *************************************************************
---------------------------------
CARTESIAN COORDINATES (ANGSTROEM)
---------------------------------
  C      0.263990   -0.464770   -0.000000
  H     -0.687240    0.106130    0.000000
  H      1.119310    0.241760   -0.000000

----------------------------
CARTESIAN COORDINATES (A.U.)
----------------------------
  NO LB      ZA    FRAG     MASS         X           Y           Z
   0 C     6.0000    0    12.011    0.498869   -0.878288   -0.000000
   1 H     1.0000    0     1.008   -1.298695    0.200557    0.000000
   2 H     1.0000    0     1.008    2.115189    0.456860   -0.000000

--------------------------------
INTERNAL COORDINATES (ANGSTROEM)
--------------------------------
 C      0   0   0     0.000000000000     0.00000000     0.00000000
 H      1   0   0     1.109398631196     0.00000000     0.00000000
 H      1   2   0     1.109394854549   109.47094193     0.00000000

---------------------------
INTERNAL COORDINATES (A.U.)
---------------------------
 C      0   0   0     0.000000000000     0.00000000     0.00000000
 H      1   0   0     2.096459586308     0.00000000     0.00000000
 H      1   2   0     2.096452449479   109.47094193     0.00000000

---------------------
BASIS SET INFORMATION
---------------------
There are 2 groups of distinct atoms

 Group   1 Type C   : 10s4p contracted to 3s2p pattern {631/31}
 Group   2 Type H   : 4s contracted to 2s pattern {31}

Atom   0C    basis set group =>   1
Atom   1H    basis set group =>   2
Atom   2H    basis set group =>   2
------------------------------------------------------------------------------
                           ORCA GTO INTEGRAL CALCULATION
------------------------------------------------------------------------------

                         BASIS SET STATISTICS AND STARTUP INFO

 # of primitive gaussian shells          ...   22
 # of primitive gaussian functions       ...   30
 # of contracted shells                  ...    9
 # of contracted basis functions         ...   13
 Highest angular momentum                ...    1
 Maximum contraction depth               ...    6
 Integral package used                   ... LIBINT
 Integral threshhold            Thresh   ...  2.500e-11
 Primitive cut-off              TCut     ...  2.500e-12


------------------------------ INTEGRAL EVALUATION ----------------------------


 * One electron integrals 
 Pre-screening matrix                    ... done
 Shell pair data                         ... done (   0.000 sec)

-------------------------------------------------------------------------------
                                 ORCA SCF
-------------------------------------------------------------------------------

------------
SCF SETTINGS
------------
Hamiltonian:
 Ab initio Hamiltonian  Method          .... Hartree-Fock(GTOs)


General Settings:
 Integral files         IntName         .... orca
 Hartree-Fock type      HFTyp           .... RHF
 Total Charge           Charge          ....    0
 Multiplicity           Mult            ....    1
 Number of Electrons    NEL             ....    8
 Basis Dimension        Dim             ....   13
 Nuclear Repulsion      ENuc            ....      6.0160448782 Eh

Convergence Acceleration:
 DIIS                   CNVDIIS         .... on
   Start iteration      DIISMaxIt       ....    12
   Startup error        DIISStart       ....  0.200000
   # of expansion vecs  DIISMaxEq       ....     5
   Bias factor          DIISBfac        ....   1.050
   Max. coefficient     DIISMaxC        ....  10.000
 Newton-Raphson         CNVNR           .... off
 SOSCF                  CNVSOSCF        .... on
   Start iteration      SOSCFMaxIt      ....   150
   Startup grad/error   SOSCFStart      ....  0.003300
 Level Shifting         CNVShift        .... on
   Level shift para.    LevelShift      ....    0.2500
   Turn off err/grad.   ShiftErr        ....    0.0010
 Zerner damping         CNVZerner       .... off
 Static damping         CNVDamp         .... on
   Fraction old density DampFac         ....    0.7000
   Max. Damping (<1)    DampMax         ....    0.9800
   Min. Damping (>=0)   DampMin         ....    0.0000
   Turn off err/grad.   DampErr         ....    0.1000
 Fernandez-Rico         CNVRico         .... off

SCF Procedure:
 Maximum # iterations   MaxIter         ....   125
 SCF integral mode      SCFMode         .... Direct
   Integral package                     .... LIBINT
 Reset frequency        DirectResetFreq ....    20
 Integral Threshold     Thresh          ....  2.500e-11 Eh
 Primitive CutOff       TCut            ....  2.500e-12 Eh

Convergence Tolerance:
 Convergence Check Mode ConvCheckMode   .... Total+1el-Energy
 Convergence forced     ConvForced      .... 0
 Energy Change          TolE            ....  1.000e-08 Eh
 1-El. energy change                    ....  1.000e-05 Eh
 Orbital Gradient       TolG            ....  1.000e-05
 Orbital Rotation angle TolX            ....  1.000e-05
 DIIS Error             TolErr          ....  5.000e-07


Diagonalization of the overlap matrix:
Smallest eigenvalue                        ... 3.647e-02
Time for diagonalization                   ...    0.045 sec
Threshold for overlap eigenvalues          ... 1.000e-08
Number of eigenvalues below threshold      ... 0
Time for construction of square roots      ...    0.018 sec
Total time needed                          ...    0.063 sec

-------------------
DFT GRID GENERATION
-------------------

General Integration Accuracy     IntAcc      ...  4.340
Radial Grid Type                 RadialGrid  ... Gauss-Chebyshev
Angular Grid (max. acc.)         AngularGrid ... Lebedev-110
Angular grid pruning method      GridPruning ... 3 (G Style)
Weight generation scheme         WeightScheme... Becke
Basis function cutoff            BFCut       ...    1.0000e-11
Integration weight cutoff        WCut        ...    1.0000e-14
Grids for H and He will be reduced by one unit

# of grid points (after initial pruning)     ...   3244 (   0.0 sec)
# of grid points (after weights+screening)   ...   3204 (   0.0 sec)
nearest neighbour list constructed           ...    0.0 sec
Grid point re-assignment to atoms done       ...    0.0 sec
Grid point division into batches done        ...    0.0 sec
Reduced shell lists constructed in    0.0 sec

Total number of grid points                  ...     3204
Total number of batches                      ...       52
Average number of points per batch           ...       61
Average number of grid points per atom       ...     1068
Average number of shells per batch           ...     8.51 (94.55%)
Average number of basis functions per batch  ...    12.43 (95.65%)
Average number of large shells per batch     ...     8.02 (94.24%)
Average number of large basis fcns per batch ...    11.75 (94.54%)
Maximum spatial batch extension              ...  16.14, 25.60, 31.36 au
Average spatial batch extension              ...   4.98,  7.31,  6.65 au

Time for grid setup =    0.009 sec

------------------------------
INITIAL GUESS: MODEL POTENTIAL
------------------------------
Loading Hartree-Fock densities                     ... done
Calculating cut-offs                               ... done
Setting up the integral package                    ... done
Initializing the effective Hamiltonian             ... done
Starting the Coulomb interaction                   ... done (   0.0 sec)
Reading the grid                                   ... done
Mapping shells                                     ... done
Starting the XC term evaluation                    ... done (   0.0 sec)
Transforming the Hamiltonian                       ... done (   0.0 sec)
Diagonalizing the Hamiltonian                      ... done (   0.0 sec)
Back transforming the eigenvectors                 ... done (   0.0 sec)
Now organizing SCF variables                       ... done
                      ------------------
                      INITIAL GUESS DONE (   0.1 sec)
                      ------------------
--------------
SCF ITERATIONS
--------------
ITER       Energy         Delta-E        Max-DP      RMS-DP      [F,P]     Damp
               ***  Starting incremental Fock matrix formation  ***
  0    -38.8358201058   0.000000000000 0.03124098  0.00456727  0.1016859 0.7000
  1    -38.8413365756  -0.005516469788 0.02562419  0.00380599  0.0715922 0.7000
                               ***Turning on DIIS***
  2    -38.8450084593  -0.003671883673 0.05782081  0.00876494  0.0473937 0.0000
  3    -38.8347158021   0.010292657134 0.02014575  0.00224344  0.0098128 0.0000
                      *** Initiating the SOSCF procedure ***
                           *** Shutting down DIIS ***
                      *** Re-Reading the Fockian *** 
                      *** Removing any level shift *** 
ITER      Energy       Delta-E        Grad      Rot      Max-DP    RMS-DP
  4    -38.85078382  -0.0160680194  0.001395  0.001395  0.004478  0.000554
               *** Restarting incremental Fock matrix formation ***
  5    -38.85283648  -0.0020526593  0.000460  0.000518  0.001151  0.000204
  6    -38.85283817  -0.0000016856  0.000153  0.000273  0.000525  0.000112
  7    -38.85283840  -0.0000002353  0.000015  0.000026  0.000081  0.000013
  8    -38.85283840  -0.0000000021  0.000006  0.000017  0.000062  0.000008
                 **** Energy Check signals convergence ****
              ***Rediagonalizing the Fockian in SOSCF/NRSCF***

               *****************************************************
               *                     SUCCESS                       *
               *           SCF CONVERGED AFTER   9 CYCLES          *
               *****************************************************


----------------
TOTAL SCF ENERGY
----------------

Total Energy       :          -38.85283840 Eh           -1057.23948 eV

Components:
Nuclear Repulsion  :            6.01604488 Eh             163.70490 eV
Electronic Energy  :          -44.86888328 Eh           -1220.94439 eV
One Electron Energy:          -63.49092203 Eh           -1727.67582 eV
Two Electron Energy:           18.62203875 Eh             506.73144 eV

Virial components:
Potential Energy   :          -77.74191438 Eh           -2115.46504 eV
Kinetic Energy     :           38.88907597 Eh            1058.22556 eV
Virial Ratio       :            1.99906818


---------------
SCF CONVERGENCE
---------------

  Last Energy change         ...   -3.3832e-10  Tolerance :   1.0000e-08
  Last MAX-Density change    ...    2.6867e-06  Tolerance :   1.0000e-07
  Last RMS-Density change    ...    4.0993e-07  Tolerance :   5.0000e-09
  Last Orbital Gradient      ...    1.2260e-06  Tolerance :   1.0000e-05
  Last Orbital Rotation      ...    1.1184e-06  Tolerance :   1.0000e-05

             **** THE GBW FILE WAS UPDATED (orca.gbw) ****
             **** DENSITY FILE WAS UPDATED (orca.scfp) ****
             **** ENERGY FILE WAS UPDATED (orca.en.tmp) ****
             **** THE GBW FILE WAS UPDATED (orca.gbw) ****
             **** DENSITY FILE WAS UPDATED (orca.scfp) ****
----------------
ORBITAL ENERGIES
----------------

  NO   OCC          E(Eh)            E(eV) 
   0   2.0000     -11.288635      -307.1794 
   1   2.0000      -0.893098       -24.3024 
   2   2.0000      -0.572949       -15.5907 
   3   2.0000      -0.368741       -10.0340 
   4   0.0000       0.070809         1.9268 
   5   0.0000       0.252855         6.8805 
   6   0.0000       0.315905         8.5962 
   7   0.0000       0.755201        20.5501 
   8   0.0000       0.789581        21.4856 
   9   0.0000       0.807443        21.9716 
  10   0.0000       0.957041        26.0424 
  11   0.0000       1.162379        31.6299 
  12   0.0000       1.171290        31.8724 

                    ********************************
                    * MULLIKEN POPULATION ANALYSIS *
                    ********************************

-----------------------
MULLIKEN ATOMIC CHARGES
-----------------------
   0 C :   -0.223278
   1 H :    0.111639
   2 H :    0.111639
Sum of atomic charges:   -0.0000000

--------------------------------
MULLIKEN REDUCED ORBITAL CHARGES
--------------------------------
  0 C s       :     3.708048  s :     3.708048
      pz      :     0.000000  p :     2.515229
      px      :     0.950892
      py      :     1.564337
  1 H s       :     0.888361  s :     0.888361
  2 H s       :     0.888361  s :     0.888361


                     *******************************
                     * LOEWDIN POPULATION ANALYSIS *
                     *******************************

----------------------
LOEWDIN ATOMIC CHARGES
----------------------
   0 C :   -0.167535
   1 H :    0.083768
   2 H :    0.083768

-------------------------------
LOEWDIN REDUCED ORBITAL CHARGES
-------------------------------
  0 C s       :     3.472698  s :     3.472698
      pz      :     0.000000  p :     2.694837
      px      :     1.076246
      py      :     1.618591
  1 H s       :     0.916232  s :     0.916232
  2 H s       :     0.916232  s :     0.916232


                      *****************************
                      * MAYER POPULATION ANALYSIS *
                      *****************************

  NA   - Mulliken gross atomic population
  ZA   - Total nuclear charge
  QA   - Mulliken gross atomic charge
  VA   - Mayer's total valence
  BVA  - Mayer's bonded valence
  FA   - Mayer's free valence

  ATOM       NA         ZA         QA         VA         BVA        FA
  0 C      6.2233     6.0000    -0.2233     1.8682     1.8682    -0.0000
  1 H      0.8884     1.0000     0.1116     0.9343     0.9343    -0.0000
  2 H      0.8884     1.0000     0.1116     0.9343     0.9343    -0.0000

  Mayer bond orders larger than 0.100000
B(  0-C ,  1-H ) :   0.9341 B(  0-C ,  2-H ) :   0.9341 

-------
TIMINGS
-------

Total SCF time: 0 days 0 hours 0 min 0 sec 

Total time                  ....       0.939 sec
Sum of individual times     ....       0.705 sec  ( 75.0%)

Fock matrix formation       ....       0.599 sec  ( 63.8%)
Diagonalization             ....       0.000 sec  (  0.0%)
Density matrix formation    ....       0.000 sec  (  0.0%)
Population analysis         ....       0.000 sec  (  0.0%)
Initial guess               ....       0.095 sec  ( 10.2%)
Orbital Transformation      ....       0.000 sec  (  0.0%)
Orbital Orthonormalization  ....       0.000 sec  (  0.0%)
DIIS solution               ....       0.000 sec  (  0.0%)
SOSCF solution              ....       0.001 sec  (  0.1%)

-------------------------   --------------------
FINAL SINGLE POINT ENERGY       -38.852838404106
-------------------------   --------------------

------------------------------------------------------------------------------
                         ORCA SCF GRADIENT CALCULATION
------------------------------------------------------------------------------

Gradient of the Hartree-Fock SCF energy:
Hartree-Fock type                ... RHF
Number of operators              ...    1
Number of atoms                  ...    3
Basis set dimensions             ...   13
Integral neglect threshold       ... 2.5e-11
Integral primitive cutoff        ... 2.5e-12

Nuclear repulsion gradient       ... done
One Electron Gradient            ... done
Pre-screening matrix             ... done
Starting the two electron gradient:
Two electron gradient done

------------------
CARTESIAN GRADIENT
------------------

   1   C   :   -0.000059187    0.000813412    0.000000000
   2   H   :   -0.009665540   -0.001133917   -0.000000000
   3   H   :    0.009724728    0.000320505   -0.000000000

Difference to translation invariance:
           :    0.0000000000    0.0000000000    0.0000000000

Norm of the cartesian gradient     ...    0.0137857399
RMS gradient                       ...    0.0045952466
MAX gradient                       ...    0.0097247276

-------
TIMINGS
-------

Total SCF gradient time            ...        0.127 sec

One electron gradient       ....       0.001 sec  (  0.5%)
Prescreening matrices       ....       0.001 sec  (  0.6%)
Two electron gradient       ....       0.005 sec  (  3.9%)
------------------------------------------------------------------------------
                         ORCA GEOMETRY RELAXATION STEP
------------------------------------------------------------------------------

Reading the OPT-File                    .... done
Getting information on internals        .... done
Copying old internal coords+grads       .... done
Making the new internal coordinates     .... (new redundants).... done
Validating the new internal coordinates .... (new redundants).... done
Calculating the B-matrix                .... done
Calculating the G,G- and P matrices     .... done
Transforming gradient to internals      .... done
Projecting the internal gradient        .... done
Number of atoms                         ....   3
Number of internal coordinates          ....   3
Current Energy                          ....   -38.852838404 Eh
Current gradient norm                   ....     0.013785740 Eh/bohr
Maximum allowed component of the step   ....  0.300
Current trust radius                    ....  0.300
Evaluating the initial hessian          ....  (Almloef) done
Projecting the Hessian                  .... done
Forming the augmented Hessian           .... done
Diagonalizing the augmented Hessian     .... done
Last element of RFO vector              ....  0.998524054
Lowest eigenvalues of augmented Hessian:
 -0.000897562  0.284973611  0.335333419
Length of the computed step             ....  0.054391543
The final length of the internal step   ....  0.054391543
Converting the step to cartesian space:
 Initial RMS(Int)=    0.0314029721
Transforming coordinates:
 Iter   0:  RMS(Cart)=    0.0222751910 RMS(Int)=    0.0313814668
 Iter   1:  RMS(Cart)=    0.0001991560 RMS(Int)=    0.0005014406
 Iter   2:  RMS(Cart)=    0.0000057862 RMS(Int)=    0.0000093767
 Iter   3:  RMS(Cart)=    0.0000000936 RMS(Int)=    0.0000002015
done
Storing new coordinates                 .... done

                                .--------------------.
          ----------------------|Geometry convergence|-------------------------
          Item                value                   Tolerance       Converged
          ---------------------------------------------------------------------
          RMS gradient        0.0095580021            0.0001000000      NO
          MAX gradient        0.0124659091            0.0003000000      NO
          RMS step            0.0314029721            0.0020000000      NO
          MAX step            0.0436893929            0.0040000000      NO
          ........................................................
          Max(Bonds)      0.0121      Max(Angles)    2.50
          Max(Dihed)        0.00      Max(Improp)    0.00
          ---------------------------------------------------------------------

The optimization has not yet converged - more geometry cycles are needed


    ---------------------------------------------------------------------------
                         Redundant Internal Coordinates
                            (Angstroem and degrees)

        Definition                    Value    dE/dq     Step     New-Value
    ----------------------------------------------------------------------------
     1. B(H   1,C   0)                1.1094  0.007704 -0.0121    1.0973   
     2. B(H   2,C   0)                1.1094  0.007702 -0.0121    1.0973   
     3. A(H   1,C   0,H   2)          109.47  0.012466   -2.50    106.97   
    ----------------------------------------------------------------------------

         *************************************************************
         *                GEOMETRY OPTIMIZATION CYCLE   2            *
         *************************************************************
---------------------------------
CARTESIAN COORDINATES (ANGSTROEM)
---------------------------------
  C      0.264609   -0.473026    0.000000
  H     -0.663666    0.112051    0.000000
  H      1.095118    0.244096    0.000000

----------------------------
CARTESIAN COORDINATES (A.U.)
----------------------------
  NO LB      ZA    FRAG     MASS         X           Y           Z
   0 C     6.0000    0    12.011    0.500038   -0.893890    0.000000
   1 H     1.0000    0     1.008   -1.254148    0.211745    0.000000
   2 H     1.0000    0     1.008    2.069473    0.461274    0.000000

--------------------------------
INTERNAL COORDINATES (ANGSTROEM)
--------------------------------
 C      0   0   0     0.000000000000     0.00000000     0.00000000
 H      1   0   0     1.097273622421     0.00000000     0.00000000
 H      1   2   0     1.097273655447   106.96772409     0.00000000

---------------------------
INTERNAL COORDINATES (A.U.)
---------------------------
 C      0   0   0     0.000000000000     0.00000000     0.00000000
 H      1   0   0     2.073546640351     0.00000000     0.00000000
 H      1   2   0     2.073546702761   106.96772409     0.00000000


Diagonalization of the overlap matrix:
Smallest eigenvalue                        ... 3.450e-02
Time for diagonalization                   ...    0.000 sec
Threshold for overlap eigenvalues          ... 1.000e-08
Number of eigenvalues below threshold      ... 0
Time for construction of square roots      ...    0.000 sec
Total time needed                          ...    0.000 sec

--------------
SCF ITERATIONS
--------------
ITER       Energy         Delta-E        Max-DP      RMS-DP      [F,P]     Damp
               ***  Starting incremental Fock matrix formation  ***
  0    -38.8532520469   0.000000000000 0.00158664  0.00027710  0.0056036 0.7000
                      *** Initiating the SOSCF procedure ***
                      *** Re-Reading the Fockian *** 
                      *** Removing any level shift *** 
ITER      Energy       Delta-E        Grad      Rot      Max-DP    RMS-DP
  1    -38.85327368  -0.0000216376  0.000737  0.000737  0.004768  0.000848
               *** Restarting incremental Fock matrix formation ***
  2    -38.85333515  -0.0000614669  0.000919  0.000685  0.002600  0.000315
  3    -38.85333826  -0.0000031046  0.000196  0.000204  0.000669  0.000100
  4    -38.85333847  -0.0000002103  0.000023  0.000026  0.000051  0.000008
                 **** Energy Check signals convergence ****
              ***Rediagonalizing the Fockian in SOSCF/NRSCF***

               *****************************************************
               *                     SUCCESS                       *
               *           SCF CONVERGED AFTER   5 CYCLES          *
               *****************************************************

Total Energy       :          -38.85333847 Eh           -1057.25309 eV
  Last Energy change         ...   -4.2408e-09  Tolerance :   1.0000e-08
  Last MAX-Density change    ...    3.9580e-05  Tolerance :   1.0000e-07
             **** THE GBW FILE WAS UPDATED (orca.gbw) ****
             **** DENSITY FILE WAS UPDATED (orca.scfp) ****
             **** ENERGY FILE WAS UPDATED (orca.en.tmp) ****
             **** THE GBW FILE WAS UPDATED (orca.gbw) ****
             **** DENSITY FILE WAS UPDATED (orca.scfp) ****
Total SCF time: 0 days 0 hours 0 min 0 sec 

-------------------------   --------------------
FINAL SINGLE POINT ENERGY       -38.853338470593
-------------------------   --------------------

------------------------------------------------------------------------------
                         ORCA SCF GRADIENT CALCULATION
------------------------------------------------------------------------------

Gradient of the Hartree-Fock SCF energy:
Hartree-Fock type                ... RHF
Number of operators              ...    1
Number of atoms                  ...    3
Basis set dimensions             ...   13
Integral neglect threshold       ... 2.5e-11
Integral primitive cutoff        ... 2.5e-12

Nuclear repulsion gradient       ... done
One Electron Gradient            ... done
Pre-screening matrix             ... done
Starting the two electron gradient:
Two electron gradient done

------------------
CARTESIAN GRADIENT
------------------

   1   C   :   -0.000329274    0.004385561    0.000000000
   2   H   :    0.000229505   -0.002187917   -0.000000000
   3   H   :    0.000099769   -0.002197644   -0.000000000

Difference to translation invariance:
           :    0.0000000000   -0.0000000000   -0.0000000000

Norm of the cartesian gradient     ...    0.0053870963
RMS gradient                       ...    0.0017956988
MAX gradient                       ...    0.0043855605

-------
TIMINGS
-------

Total SCF gradient time            ...        0.106 sec

One electron gradient       ....       0.001 sec  (  0.5%)
Prescreening matrices       ....       0.001 sec  (  0.6%)
Two electron gradient       ....       0.004 sec  (  3.8%)
------------------------------------------------------------------------------
                         ORCA GEOMETRY RELAXATION STEP
------------------------------------------------------------------------------

Reading the OPT-File                    .... done
Getting information on internals        .... done
Copying old internal coords+grads       .... done
Making the new internal coordinates     .... (new redundants).... done
Validating the new internal coordinates .... (new redundants).... done
Calculating the B-matrix                .... done
Calculating the G,G- and P matrices     .... done
Transforming gradient to internals      .... done
Projecting the internal gradient        .... done
Number of atoms                         ....   3
Number of internal coordinates          ....   3
Current Energy                          ....   -38.853338471 Eh
Current gradient norm                   ....     0.005387096 Eh/bohr
Maximum allowed component of the step   ....  0.300
Current trust radius                    ....  0.300
Updating the Hessian (BFGS)             .... done
Forming the augmented Hessian           .... done
Diagonalizing the augmented Hessian     .... done
Last element of RFO vector              ....  0.999848366
Lowest eigenvalues of augmented Hessian:
 -0.000068807  0.209709197  0.335333434
Length of the computed step             ....  0.017416563
The final length of the internal step   ....  0.017416563
Converting the step to cartesian space:
 Initial RMS(Int)=    0.0100554574
Transforming coordinates:
 Iter   0:  RMS(Cart)=    0.0057177242 RMS(Int)=    0.0100564683
 Iter   1:  RMS(Cart)=    0.0000357979 RMS(Int)=    0.0000617730
 Iter   2:  RMS(Cart)=    0.0000001806 RMS(Int)=    0.0000003715
 Iter   3:  RMS(Cart)=    0.0000000026 RMS(Int)=    0.0000000043
done
Storing new coordinates                 .... done

                                .--------------------.
          ----------------------|Geometry convergence|-------------------------
          Item                value                   Tolerance       Converged
          ---------------------------------------------------------------------
          Energy change      -0.0005000665            0.0000050000      NO
          RMS gradient        0.0023487799            0.0001000000      NO
          MAX gradient        0.0035842629            0.0003000000      NO
          RMS step            0.0100554574            0.0020000000      NO
          MAX step            0.0168676052            0.0040000000      NO
          ........................................................
          Max(Bonds)      0.0016      Max(Angles)    0.97
          Max(Dihed)        0.00      Max(Improp)    0.00
          ---------------------------------------------------------------------

The optimization has not yet converged - more geometry cycles are needed


    ---------------------------------------------------------------------------
                         Redundant Internal Coordinates
                            (Angstroem and degrees)

        Definition                    Value    dE/dq     Step     New-Value
    ----------------------------------------------------------------------------
     1. B(H   1,C   0)                1.0973 -0.001361  0.0016    1.0989   
     2. B(H   2,C   0)                1.0973 -0.001361  0.0016    1.0989   
     3. A(H   1,C   0,H   2)          106.97  0.003584   -0.97    106.00   
    ----------------------------------------------------------------------------

         *************************************************************
         *                GEOMETRY OPTIMIZATION CYCLE   3            *
         *************************************************************
---------------------------------
CARTESIAN COORDINATES (ANGSTROEM)
---------------------------------
  C      0.265027   -0.478605    0.000000
  H     -0.659646    0.115157    0.000000
  H      1.090679    0.246567    0.000000

----------------------------
CARTESIAN COORDINATES (A.U.)
----------------------------
  NO LB      ZA    FRAG     MASS         X           Y           Z
   0 C     6.0000    0    12.011    0.500829   -0.904432    0.000000
   1 H     1.0000    0     1.008   -1.246551    0.217616    0.000000
   2 H     1.0000    0     1.008    2.061084    0.465945    0.000000

--------------------------------
INTERNAL COORDINATES (ANGSTROEM)
--------------------------------
 C      0   0   0     0.000000000000     0.00000000     0.00000000
 H      1   0   0     1.098896850232     0.00000000     0.00000000
 H      1   2   0     1.098897055162   106.00128151     0.00000000

---------------------------
INTERNAL COORDINATES (A.U.)
---------------------------
 C      0   0   0     0.000000000000     0.00000000     0.00000000
 H      1   0   0     2.076614096368     0.00000000     0.00000000
 H      1   2   0     2.076614483628   106.00128151     0.00000000


Diagonalization of the overlap matrix:
Smallest eigenvalue                        ... 3.436e-02
Time for diagonalization                   ...    0.000 sec
Threshold for overlap eigenvalues          ... 1.000e-08
Number of eigenvalues below threshold      ... 0
Time for construction of square roots      ...    0.000 sec
Total time needed                          ...    0.000 sec

--------------
SCF ITERATIONS
--------------
ITER       Energy         Delta-E        Max-DP      RMS-DP      [F,P]     Damp
               ***  Starting incremental Fock matrix formation  ***
                      *** Initiating the SOSCF procedure ***
                      *** Re-Reading the Fockian *** 
                      *** Removing any level shift *** 
ITER      Energy       Delta-E        Grad      Rot      Max-DP    RMS-DP
  0    -38.85337059 -38.8533705922  0.001396  0.001396  0.003229  0.000416
               *** Restarting incremental Fock matrix formation ***
  1    -38.85338036  -0.0000097691  0.000439  0.000538  0.001987  0.000274
  2    -38.85338216  -0.0000017988  0.000152  0.000367  0.001117  0.000162
  3    -38.85338240  -0.0000002435  0.000024  0.000047  0.000076  0.000015
                 **** Energy Check signals convergence ****
              ***Rediagonalizing the Fockian in SOSCF/NRSCF***

               *****************************************************
               *                     SUCCESS                       *
               *           SCF CONVERGED AFTER   4 CYCLES          *
               *****************************************************

Total Energy       :          -38.85338241 Eh           -1057.25429 eV
  Last Energy change         ...   -4.3294e-09  Tolerance :   1.0000e-08
  Last MAX-Density change    ...    2.7081e-05  Tolerance :   1.0000e-07
             **** THE GBW FILE WAS UPDATED (orca.gbw) ****
             **** DENSITY FILE WAS UPDATED (orca.scfp) ****
             **** ENERGY FILE WAS UPDATED (orca.en.tmp) ****
             **** THE GBW FILE WAS UPDATED (orca.gbw) ****
             **** DENSITY FILE WAS UPDATED (orca.scfp) ****
Total SCF time: 0 days 0 hours 0 min 0 sec 

-------------------------   --------------------
FINAL SINGLE POINT ENERGY       -38.853382407892
-------------------------   --------------------

------------------------------------------------------------------------------
                         ORCA SCF GRADIENT CALCULATION
------------------------------------------------------------------------------

Gradient of the Hartree-Fock SCF energy:
Hartree-Fock type                ... RHF
Number of operators              ...    1
Number of atoms                  ...    3
Basis set dimensions             ...   13
Integral neglect threshold       ... 2.5e-11
Integral primitive cutoff        ... 2.5e-12

Nuclear repulsion gradient       ... done
One Electron Gradient            ... done
Pre-screening matrix             ... done
Starting the two electron gradient:
Two electron gradient done

------------------
CARTESIAN GRADIENT
------------------

   1   C   :   -0.000123879    0.001648601    0.000000000
   2   H   :    0.000507933   -0.000790857   -0.000000000
   3   H   :   -0.000384054   -0.000857744   -0.000000000

Difference to translation invariance:
           :    0.0000000000   -0.0000000000    0.0000000000

Norm of the cartesian gradient     ...    0.0021212973
RMS gradient                       ...    0.0007070991
MAX gradient                       ...    0.0016486006

-------
TIMINGS
-------

Total SCF gradient time            ...        0.106 sec

One electron gradient       ....       0.001 sec  (  0.5%)
Prescreening matrices       ....       0.001 sec  (  0.6%)
Two electron gradient       ....       0.004 sec  (  3.8%)
------------------------------------------------------------------------------
                         ORCA GEOMETRY RELAXATION STEP
------------------------------------------------------------------------------

Reading the OPT-File                    .... done
Getting information on internals        .... done
Copying old internal coords+grads       .... done
Making the new internal coordinates     .... (new redundants).... done
Validating the new internal coordinates .... (new redundants).... done
Calculating the B-matrix                .... done
Calculating the G,G- and P matrices     .... done
Transforming gradient to internals      .... done
Projecting the internal gradient        .... done
Number of atoms                         ....   3
Number of internal coordinates          ....   3
Current Energy                          ....   -38.853382408 Eh
Current gradient norm                   ....     0.002121297 Eh/bohr
Maximum allowed component of the step   ....  0.300
Current trust radius                    ....  0.300
Updating the Hessian (BFGS)             .... done
Forming the augmented Hessian           .... done
Diagonalizing the augmented Hessian     .... done
Last element of RFO vector              ....  0.999974858
Lowest eigenvalues of augmented Hessian:
 -0.000009671  0.164400336  0.335333434
Length of the computed step             ....  0.007091260
The final length of the internal step   ....  0.007091260
Converting the step to cartesian space:
 Initial RMS(Int)=    0.0040941406
Transforming coordinates:
 Iter   0:  RMS(Cart)=    0.0018776291 RMS(Int)=    0.0040944385
 Iter   1:  RMS(Cart)=    0.0000056485 RMS(Int)=    0.0000084388
 Iter   2:  RMS(Cart)=    0.0000000087 RMS(Int)=    0.0000000211
done
Storing new coordinates                 .... done

                                .--------------------.
          ----------------------|Geometry convergence|-------------------------
          Item                value                   Tolerance       Converged
          ---------------------------------------------------------------------
          Energy change      -0.0000439373            0.0000050000      NO
          RMS gradient        0.0008406788            0.0001000000      NO
          MAX gradient        0.0008547234            0.0003000000      NO
          RMS step            0.0040941406            0.0020000000      NO
          MAX step            0.0057657604            0.0040000000      NO
          ........................................................
          Max(Bonds)      0.0015      Max(Angles)    0.33
          Max(Dihed)        0.00      Max(Improp)    0.00
          ---------------------------------------------------------------------

The optimization has not yet converged - more geometry cycles are needed


    ---------------------------------------------------------------------------
                         Redundant Internal Coordinates
                            (Angstroem and degrees)

        Definition                    Value    dE/dq     Step     New-Value
    ----------------------------------------------------------------------------
     1. B(H   1,C   0)                1.0989 -0.000855  0.0015    1.1004   
     2. B(H   2,C   0)                1.0989 -0.000855  0.0015    1.1004   
     3. A(H   1,C   0,H   2)          106.00  0.000812   -0.33    105.67   
    ----------------------------------------------------------------------------

         *************************************************************
         *                GEOMETRY OPTIMIZATION CYCLE   4            *
         *************************************************************
---------------------------------
CARTESIAN COORDINATES (ANGSTROEM)
---------------------------------
  C      0.265200   -0.480905    0.000000
  H     -0.659055    0.116359    0.000000
  H      1.089915    0.247667    0.000000

----------------------------
CARTESIAN COORDINATES (A.U.)
----------------------------
  NO LB      ZA    FRAG     MASS         X           Y           Z
   0 C     6.0000    0    12.011    0.501155   -0.908779    0.000000
   1 H     1.0000    0     1.008   -1.245434    0.219886    0.000000
   2 H     1.0000    0     1.008    2.059641    0.468022    0.000000

--------------------------------
INTERNAL COORDINATES (ANGSTROEM)
--------------------------------
 C      0   0   0     0.000000000000     0.00000000     0.00000000
 H      1   0   0     1.100441654760     0.00000000     0.00000000
 H      1   2   0     1.100441663850   105.67092776     0.00000000

---------------------------
INTERNAL COORDINATES (A.U.)
---------------------------
 C      0   0   0     0.000000000000     0.00000000     0.00000000
 H      1   0   0     2.079533353856     0.00000000     0.00000000
 H      1   2   0     2.079533371034   105.67092776     0.00000000


Diagonalization of the overlap matrix:
Smallest eigenvalue                        ... 3.441e-02
Time for diagonalization                   ...    0.000 sec
Threshold for overlap eigenvalues          ... 1.000e-08
Number of eigenvalues below threshold      ... 0
Time for construction of square roots      ...    0.000 sec
Total time needed                          ...    0.000 sec

--------------
SCF ITERATIONS
--------------
ITER       Energy         Delta-E        Max-DP      RMS-DP      [F,P]     Damp
               ***  Starting incremental Fock matrix formation  ***
                      *** Initiating the SOSCF procedure ***
                      *** Re-Reading the Fockian *** 
                      *** Removing any level shift *** 
ITER      Energy       Delta-E        Grad      Rot      Max-DP    RMS-DP
  0    -38.85338470 -38.8533847031  0.000772  0.000772  0.001417  0.000184
               *** Restarting incremental Fock matrix formation ***
  1    -38.85338688  -0.0000021774  0.000220  0.000273  0.000775  0.000116
  2    -38.85338726  -0.0000003768  0.000078  0.000193  0.000480  0.000075
  3    -38.85338731  -0.0000000564  0.000011  0.000023  0.000040  0.000008
                 **** Energy Check signals convergence ****
              ***Rediagonalizing the Fockian in SOSCF/NRSCF***

               *****************************************************
               *                     SUCCESS                       *
               *           SCF CONVERGED AFTER   4 CYCLES          *
               *****************************************************

Total Energy       :          -38.85338731 Eh           -1057.25442 eV
  Last Energy change         ...   -1.0551e-09  Tolerance :   1.0000e-08
  Last MAX-Density change    ...    1.3631e-05  Tolerance :   1.0000e-07
             **** THE GBW FILE WAS UPDATED (orca.gbw) ****
             **** DENSITY FILE WAS UPDATED (orca.scfp) ****
             **** ENERGY FILE WAS UPDATED (orca.en.tmp) ****
             **** THE GBW FILE WAS UPDATED (orca.gbw) ****
             **** DENSITY FILE WAS UPDATED (orca.scfp) ****
Total SCF time: 0 days 0 hours 0 min 0 sec 

-------------------------   --------------------
FINAL SINGLE POINT ENERGY       -38.853387314785
-------------------------   --------------------

------------------------------------------------------------------------------
                         ORCA SCF GRADIENT CALCULATION
------------------------------------------------------------------------------

Gradient of the Hartree-Fock SCF energy:
Hartree-Fock type                ... RHF
Number of operators              ...    1
Number of atoms                  ...    3
Basis set dimensions             ...   13
Integral neglect threshold       ... 2.5e-11
Integral primitive cutoff        ... 2.5e-12

Nuclear repulsion gradient       ... done
One Electron Gradient            ... done
Pre-screening matrix             ... done
Starting the two electron gradient:
Two electron gradient done

------------------
CARTESIAN GRADIENT
------------------

   1   C   :   -0.000002764    0.000036745    0.000000000
   2   H   :    0.000043440   -0.000015217   -0.000000000
   3   H   :   -0.000040676   -0.000021528   -0.000000000

Difference to translation invariance:
           :    0.0000000000   -0.0000000000    0.0000000000

Norm of the cartesian gradient     ...    0.0000747956
RMS gradient                       ...    0.0000249319
MAX gradient                       ...    0.0000434397

-------
TIMINGS
-------

Total SCF gradient time            ...        0.106 sec

One electron gradient       ....       0.001 sec  (  0.5%)
Prescreening matrices       ....       0.001 sec  (  0.6%)
Two electron gradient       ....       0.004 sec  (  3.8%)
------------------------------------------------------------------------------
                         ORCA GEOMETRY RELAXATION STEP
------------------------------------------------------------------------------

Reading the OPT-File                    .... done
Getting information on internals        .... done
Copying old internal coords+grads       .... done
Making the new internal coordinates     .... (new redundants).... done
Validating the new internal coordinates .... (new redundants).... done
Calculating the B-matrix                .... done
Calculating the G,G- and P matrices     .... done
Transforming gradient to internals      .... done
Projecting the internal gradient        .... done
Number of atoms                         ....   3
Number of internal coordinates          ....   3
Current Energy                          ....   -38.853387315 Eh
Current gradient norm                   ....     0.000074796 Eh/bohr
Maximum allowed component of the step   ....  0.300
Current trust radius                    ....  0.300
Updating the Hessian (BFGS)             .... done
Forming the augmented Hessian           .... done
Diagonalizing the augmented Hessian     .... done
Last element of RFO vector              ....  0.999999983
Lowest eigenvalues of augmented Hessian:
 -0.000000012  0.167311330  0.335333434
Length of the computed step             ....  0.000184794
The final length of the internal step   ....  0.000184794
Converting the step to cartesian space:
 Initial RMS(Int)=    0.0001066910
Transforming coordinates:
 Iter   0:  RMS(Cart)=    0.0000670151 RMS(Int)=    0.0001066911
 Iter   1:  RMS(Cart)=    0.0000000014 RMS(Int)=    0.0000000027
done
Storing new coordinates                 .... done

                                .--------------------.
          ----------------------|Geometry convergence|-------------------------
          Item                value                   Tolerance       Converged
          ---------------------------------------------------------------------
          Energy change      -0.0000049069            0.0000050000      YES
          RMS gradient        0.0000387621            0.0001000000      YES
          MAX gradient        0.0000447436            0.0003000000      YES
          RMS step            0.0001066910            0.0020000000      YES
          MAX step            0.0001196394            0.0040000000      YES
          ........................................................
          Max(Bonds)      0.0001      Max(Angles)    0.00
          Max(Dihed)        0.00      Max(Improp)    0.00
          ---------------------------------------------------------------------

                    ***********************HURRAY********************
                    ***        THE OPTIMIZATION HAS CONVERGED     ***
                    *************************************************


    ---------------------------------------------------------------------------
                         Redundant Internal Coordinates

                          --- Optimized Parameters ---  
                            (Angstroem and degrees)

        Definition                    OldVal   dE/dq     Step     FinalVal
    ----------------------------------------------------------------------------
     1. B(H   1,C   0)                1.1004 -0.000045  0.0001    1.1005   
     2. B(H   2,C   0)                1.1004 -0.000045  0.0001    1.1005   
     3. A(H   1,C   0,H   2)          105.67 -0.000022    0.00    105.68   
    ----------------------------------------------------------------------------
                 *******************************************************
                 *** FINAL ENERGY EVALUATION AT THE STATIONARY POINT ***
                 ***               (AFTER    4 CYCLES)               ***
                 *******************************************************
---------------------------------
CARTESIAN COORDINATES (ANGSTROEM)
---------------------------------
  C      0.265200   -0.480909    0.000000
  H     -0.659130    0.116355    0.000000
  H      1.089990    0.247674    0.000000

----------------------------
CARTESIAN COORDINATES (A.U.)
----------------------------
  NO LB      ZA    FRAG     MASS         X           Y           Z
   0 C     6.0000    0    12.011    0.501156   -0.908786    0.000000
   1 H     1.0000    0     1.008   -1.245576    0.219879    0.000000
   2 H     1.0000    0     1.008    2.059783    0.468036    0.000000

--------------------------------
INTERNAL COORDINATES (ANGSTROEM)
--------------------------------
 C      0   0   0     0.000000000000     0.00000000     0.00000000
 H      1   0   0     1.100504965199     0.00000000     0.00000000
 H      1   2   0     1.100504965237   105.67518690     0.00000000

---------------------------
INTERNAL COORDINATES (A.U.)
---------------------------
 C      0   0   0     0.000000000000     0.00000000     0.00000000
 H      1   0   0     2.079652993247     0.00000000     0.00000000
 H      1   2   0     2.079652993319   105.67518690     0.00000000

---------------------
BASIS SET INFORMATION
---------------------
There are 2 groups of distinct atoms

 Group   1 Type C   : 10s4p contracted to 3s2p pattern {631/31}
 Group   2 Type H   : 4s contracted to 2s pattern {31}

Atom   0C    basis set group =>   1
Atom   1H    basis set group =>   2
Atom   2H    basis set group =>   2
------------------------------------------------------------------------------
                           ORCA GTO INTEGRAL CALCULATION
------------------------------------------------------------------------------

                         BASIS SET STATISTICS AND STARTUP INFO

 # of primitive gaussian shells          ...   22
 # of primitive gaussian functions       ...   30
 # of contracted shells                  ...    9
 # of contracted basis functions         ...   13
 Highest angular momentum                ...    1
 Maximum contraction depth               ...    6
 Integral package used                   ... LIBINT
 Integral threshhold            Thresh   ...  2.500e-11
 Primitive cut-off              TCut     ...  2.500e-12


------------------------------ INTEGRAL EVALUATION ----------------------------


 * One electron integrals 
 Pre-screening matrix                    ... done
 Shell pair data                         ... done (   0.000 sec)

-------------------------------------------------------------------------------
                                 ORCA SCF
-------------------------------------------------------------------------------

------------
SCF SETTINGS
------------
Hamiltonian:
 Ab initio Hamiltonian  Method          .... Hartree-Fock(GTOs)


General Settings:
 Integral files         IntName         .... orca
 Hartree-Fock type      HFTyp           .... RHF
 Total Charge           Charge          ....    0
 Multiplicity           Mult            ....    1
 Number of Electrons    NEL             ....    8
 Basis Dimension        Dim             ....   13
 Nuclear Repulsion      ENuc            ....      6.0718833955 Eh

Convergence Acceleration:
 DIIS                   CNVDIIS         .... on
   Start iteration      DIISMaxIt       ....    12
   Startup error        DIISStart       ....  0.200000
   # of expansion vecs  DIISMaxEq       ....     5
   Bias factor          DIISBfac        ....   1.050
   Max. coefficient     DIISMaxC        ....  10.000
 Newton-Raphson         CNVNR           .... off
 SOSCF                  CNVSOSCF        .... on
   Start iteration      SOSCFMaxIt      ....   150
   Startup grad/error   SOSCFStart      ....  0.003300
 Level Shifting         CNVShift        .... on
   Level shift para.    LevelShift      ....    0.2500
   Turn off err/grad.   ShiftErr        ....    0.0010
 Zerner damping         CNVZerner       .... off
 Static damping         CNVDamp         .... on
   Fraction old density DampFac         ....    0.7000
   Max. Damping (<1)    DampMax         ....    0.9800
   Min. Damping (>=0)   DampMin         ....    0.0000
   Turn off err/grad.   DampErr         ....    0.1000
 Fernandez-Rico         CNVRico         .... off

SCF Procedure:
 Maximum # iterations   MaxIter         ....   125
 SCF integral mode      SCFMode         .... Direct
   Integral package                     .... LIBINT
 Reset frequency        DirectResetFreq ....    20
 Integral Threshold     Thresh          ....  2.500e-11 Eh
 Primitive CutOff       TCut            ....  2.500e-12 Eh

Convergence Tolerance:
 Convergence Check Mode ConvCheckMode   .... Total+1el-Energy
 Convergence forced     ConvForced      .... 0
 Energy Change          TolE            ....  1.000e-08 Eh
 1-El. energy change                    ....  1.000e-05 Eh
 Orbital Gradient       TolG            ....  1.000e-05
 Orbital Rotation angle TolX            ....  1.000e-05
 DIIS Error             TolErr          ....  5.000e-07


Diagonalization of the overlap matrix:
Smallest eigenvalue                        ... 3.441e-02
Time for diagonalization                   ...    0.000 sec
Threshold for overlap eigenvalues          ... 1.000e-08
Number of eigenvalues below threshold      ... 0
Time for construction of square roots      ...    0.000 sec
Total time needed                          ...    0.000 sec

---------------------
INITIAL GUESS: MOREAD
---------------------
Guess MOs are being read from file: orca.gbw
Input Geometry matches current geometry (good)
Input basis set matches current basis set (good)
MOs were renormalized
MOs were reorthogonalized (Cholesky)
                      ------------------
                      INITIAL GUESS DONE (   0.0 sec)
                      ------------------
--------------
SCF ITERATIONS
--------------
ITER       Energy         Delta-E        Max-DP      RMS-DP      [F,P]     Damp
               ***  Starting incremental Fock matrix formation  ***
                      *** Initiating the SOSCF procedure ***
                      *** Re-Reading the Fockian *** 
                      *** Removing any level shift *** 
ITER      Energy       Delta-E        Grad      Rot      Max-DP    RMS-DP
  0    -38.85338732 -38.8533873197  0.000018  0.000018  0.000017  0.000004
               *** Restarting incremental Fock matrix formation ***
                 **** Energy Check signals convergence ****
              ***Rediagonalizing the Fockian in SOSCF/NRSCF***

               *****************************************************
               *                     SUCCESS                       *
               *           SCF CONVERGED AFTER   1 CYCLES          *
               *****************************************************


----------------
TOTAL SCF ENERGY
----------------

Total Energy       :          -38.85338732 Eh           -1057.25442 eV

Components:
Nuclear Repulsion  :            6.07188340 Eh             165.22435 eV
Electronic Energy  :          -44.92527072 Eh           -1222.47877 eV
One Electron Energy:          -63.58698974 Eh           -1730.28996 eV
Two Electron Energy:           18.66171902 Eh             507.81119 eV

Virial components:
Potential Energy   :          -77.77339358 Eh           -2116.32163 eV
Kinetic Energy     :           38.92000626 Eh            1059.06721 eV
Virial Ratio       :            1.99828831


---------------
SCF CONVERGENCE
---------------

  Last Energy change         ...   -1.4090e-09  Tolerance :   1.0000e-08
  Last MAX-Density change    ...    6.6651e-06  Tolerance :   1.0000e-07
  Last RMS-Density change    ...    1.3204e-06  Tolerance :   5.0000e-09
  Last Orbital Gradient      ...    4.3512e-06  Tolerance :   1.0000e-05
  Last Orbital Rotation      ...    3.9719e-06  Tolerance :   1.0000e-05

             **** THE GBW FILE WAS UPDATED (orca.gbw) ****
             **** DENSITY FILE WAS UPDATED (orca.scfp) ****
             **** ENERGY FILE WAS UPDATED (orca.en.tmp) ****
             **** THE GBW FILE WAS UPDATED (orca.gbw) ****
             **** DENSITY FILE WAS UPDATED (orca.scfp) ****
----------------
ORBITAL ENERGIES
----------------

  NO   OCC          E(Eh)            E(eV) 
   0   2.0000     -11.288244      -307.1687 
   1   2.0000      -0.900156       -24.4945 
   2   2.0000      -0.569462       -15.4959 
   3   2.0000      -0.373911       -10.1746 
   4   0.0000       0.070240         1.9113 
   5   0.0000       0.255678         6.9573 
   6   0.0000       0.316160         8.6032 
   7   0.0000       0.744654        20.2631 
   8   0.0000       0.792051        21.5528 
   9   0.0000       0.807178        21.9644 
  10   0.0000       0.975306        26.5394 
  11   0.0000       1.170314        31.8459 
  12   0.0000       1.176325        32.0094 

                    ********************************
                    * MULLIKEN POPULATION ANALYSIS *
                    ********************************

-----------------------
MULLIKEN ATOMIC CHARGES
-----------------------
   0 C :   -0.214392
   1 H :    0.107196
   2 H :    0.107196
Sum of atomic charges:    0.0000000

--------------------------------
MULLIKEN REDUCED ORBITAL CHARGES
--------------------------------
  0 C s       :     3.717771  s :     3.717771
      pz      :     0.000000  p :     2.496621
      px      :     0.954214
      py      :     1.542407
  1 H s       :     0.892804  s :     0.892804
  2 H s       :     0.892804  s :     0.892804


                     *******************************
                     * LOEWDIN POPULATION ANALYSIS *
                     *******************************

----------------------
LOEWDIN ATOMIC CHARGES
----------------------
   0 C :   -0.159256
   1 H :    0.079628
   2 H :    0.079628

-------------------------------
LOEWDIN REDUCED ORBITAL CHARGES
-------------------------------
  0 C s       :     3.477369  s :     3.477369
      pz      :     0.000000  p :     2.681887
      px      :     1.079695
      py      :     1.602192
  1 H s       :     0.920372  s :     0.920372
  2 H s       :     0.920372  s :     0.920372


                      *****************************
                      * MAYER POPULATION ANALYSIS *
                      *****************************

  NA   - Mulliken gross atomic population
  ZA   - Total nuclear charge
  QA   - Mulliken gross atomic charge
  VA   - Mayer's total valence
  BVA  - Mayer's bonded valence
  FA   - Mayer's free valence

  ATOM       NA         ZA         QA         VA         BVA        FA
  0 C      6.2144     6.0000    -0.2144     1.8716     1.8716     0.0000
  1 H      0.8928     1.0000     0.1072     0.9320     0.9320    -0.0000
  2 H      0.8928     1.0000     0.1072     0.9320     0.9320    -0.0000

  Mayer bond orders larger than 0.100000
B(  0-C ,  1-H ) :   0.9358 B(  0-C ,  2-H ) :   0.9358 

-------
TIMINGS
-------

Total SCF time: 0 days 0 hours 0 min 0 sec 

Total time                  ....       0.292 sec
Sum of individual times     ....       0.137 sec  ( 46.9%)

Fock matrix formation       ....       0.136 sec  ( 46.6%)
Diagonalization             ....       0.000 sec  (  0.0%)
Density matrix formation    ....       0.000 sec  (  0.0%)
Population analysis         ....       0.000 sec  (  0.1%)
Initial guess               ....       0.000 sec  (  0.1%)
Orbital Transformation      ....       0.000 sec  (  0.0%)
Orbital Orthonormalization  ....       0.000 sec  (  0.0%)
DIIS solution               ....       0.000 sec  (  0.0%)
SOSCF solution              ....       0.000 sec  (  0.1%)

-------------------------   --------------------
FINAL SINGLE POINT ENERGY       -38.853387321117
-------------------------   --------------------

                                *** OPTIMIZATION RUN DONE ***

                            ***************************************
                            *     ORCA property calculations      *
                            ***************************************

                                    ---------------------
                                    Active property flags
                                    ---------------------
   (+) Dipole Moment


------------------------------------------------------------------------------
                       ORCA ELECTRIC PROPERTIES CALCULATION
------------------------------------------------------------------------------

Dipole Moment Calculation                       ... on
Quadrupole Moment Calculation                   ... off
Polarizability Calculation                      ... off
GBWName                                         ... orca.gbw
Electron density file                           ... orca.scfp
The origin for moment calculation is the CENTER OF MASS  = ( 0.487639, -0.728738  0.000000)

-------------
DIPOLE MOMENT
-------------
                                X             Y             Z
Electronic contribution:      0.01410      -0.18776       0.00000
Nuclear contribution   :     -0.07997       1.06510       0.00000
                        -----------------------------------------
Total Dipole Moment    :     -0.06587       0.87734       0.00000
                        -----------------------------------------
Magnitude (a.u.)       :      0.87981
Magnitude (Debye)      :      2.23630



--------------------
Rotational spectrum 
--------------------
 
Rotational constants in cm-1:    22.096542    10.871410     7.286488 
Rotational constants in MHz : 662437.662017 325916.681619 218443.401371 

 Dipole components along the rotational axes: 
x,y,z [a.u.] :     0.000000     0.879812     0.000000 
x,y,z [Debye]:     0.000000     2.236303     0.000000 

 

Timings for individual modules:

Sum of individual times         ...        7.529 sec (=   0.125 min)
GTO integral calculation        ...        1.734 sec (=   0.029 min)  23.0 %
SCF iterations                  ...        3.604 sec (=   0.060 min)  47.9 %
SCF Gradient evaluation         ...        1.236 sec (=   0.021 min)  16.4 %
Geometry relaxation             ...        0.955 sec (=   0.016 min)  12.7 %
                             ****ORCA TERMINATED NORMALLY****
TOTAL RUN TIME: 0 days 0 hours 0 minutes 8 seconds 485 msec
