
                                 *****************
                                 * O   R   C   A *
                                 *****************

           --- An Ab Initio, DFT and Semiempirical electronic structure package ---

                  #######################################################
                  #                        -***-                        #
                  #          Department of theory and spectroscopy      #
                  #               Directorship: Frank Neese             #
                  #        Max Planck Institute fuer Kohlenforschung    #
                  #                Kaiser Wilhelm Platz 1               #
                  #                 D-45470 Muelheim/Ruhr               #
                  #                      Germany                        #
                  #                                                     #
                  #                  All rights reserved                #
                  #                        -***-                        #
                  #######################################################


                         Program Version 4.2.1 -  RELEASE  -


 With contributions from (in alphabetic order):
   Daniel Aravena         : Magnetic Suceptibility
   Michael Atanasov       : Ab Initio Ligand Field Theory (pilot matlab implementation)
   Alexander A. Auer      : GIAO ZORA, VPT2
   Ute Becker             : Parallelization
   Giovanni Bistoni       : ED, misc. LED, open-shell LED, HFLD
   Martin Brehm           : Molecular dynamics
   Dmytro Bykov           : SCF Hessian
   Vijay G. Chilkuri      : MRCI spin determinant printing, contributions to CSF-ICE
   Dipayan Datta          : RHF DLPNO-CCSD density
   Achintya Kumar Dutta   : EOM-CC, STEOM-CC
   Dmitry Ganyushin       : Spin-Orbit,Spin-Spin,Magnetic field MRCI
   Miquel Garcia          : C-PCM Hessian, Gaussian charge scheme
   Yang Guo               : DLPNO-NEVPT2, CIM, IAO-localization
   Andreas Hansen         : Spin unrestricted coupled pair/coupled cluster methods
   Benjamin Helmich-Paris : CASSCF linear response (MC-RPA)
   Lee Huntington         : MR-EOM, pCC
   Robert Izsak           : Overlap fitted RIJCOSX, COSX-SCS-MP3, EOM
   Christian Kollmar      : KDIIS, OOCD, Brueckner-CCSD(T), CCSD density
   Simone Kossmann        : Meta GGA functionals, TD-DFT gradient, OOMP2, MP2 Hessian
   Martin Krupicka        : AUTO-CI
   Lucas Lang             : DCDCAS
   Dagmar Lenk            : GEPOL surface, SMD
   Dimitrios Liakos       : Extrapolation schemes; Compound Job, initial MDCI parallelization
   Dimitrios Manganas     : Further ROCIS development; embedding schemes
   Dimitrios Pantazis     : SARC Basis sets
   Taras Petrenko         : DFT Hessian,TD-DFT gradient, ASA, ECA, R-Raman, ABS, FL, XAS/XES, NRVS
   Peter Pinski           : DLPNO-MP2, DLPNO-MP2 Gradient
   Christoph Reimann      : Effective Core Potentials
   Marius Retegan         : Local ZFS, SOC
   Christoph Riplinger    : Optimizer, TS searches, QM/MM, DLPNO-CCSD(T), (RO)-DLPNO pert. Triples
   Tobias Risthaus        : Range-separated hybrids, TD-DFT gradient, RPA, STAB
   Michael Roemelt        : Original ROCIS implementation
   Masaaki Saitow         : Open-shell DLPNO-CCSD energy and density
   Barbara Sandhoefer     : DKH picture change effects
   Avijit Sen             : IP-ROCIS
   Kantharuban Sivalingam : CASSCF convergence, NEVPT2, FIC-MRCI
   Bernardo de Souza      : ESD, SOC TD-DFT
   Georgi Stoychev        : AutoAux, RI-MP2 NMR
   Willem Van den Heuvel  : Paramagnetic NMR
   Boris Wezisla          : Elementary symmetry handling
   Frank Wennmohs         : Technical directorship


 We gratefully acknowledge several colleagues who have allowed us to
 interface, adapt or use parts of their codes:
   Stefan Grimme, W. Hujo, H. Kruse,             : VdW corrections, initial TS optimization,
                  C. Bannwarth                     DFT functionals, gCP, sTDA/sTD-DF
   Ed Valeev, F. Pavosevic, A. Kumar             : LibInt (2-el integral package), F12 methods
   Garnet Chan, S. Sharma, J. Yang, R. Olivares  : DMRG
   Ulf Ekstrom                                   : XCFun DFT Library
   Mihaly Kallay                                 : mrcc  (arbitrary order and MRCC methods)
   Andreas Klamt, Michael Diedenhofen            : otool_cosmo (COSMO solvation model)
   Jiri Pittner, Ondrej Demel                    : Mk-CCSD
   Frank Weinhold                                : gennbo (NPA and NBO analysis)
   Christopher J. Cramer and Donald G. Truhlar   : smd solvation model
   Lars Goerigk                                  : TD-DFT with DH, B97 family of functionals
   V. Asgeirsson, H. Jonsson                     : NEB implementation
   FAccTs GmbH                                   : IRC, NEB, NEB-TS, Multilevel, MM, QM/MM, CI optimization
   S Lehtola, MJT Oliveira, MAL Marques          : LibXC Library


 Your calculation uses the libint2 library for the computation of 2-el integrals
 For citations please refer to: http://libint.valeyev.net

 Your ORCA version has been built with support for libXC version: 4.2.3
 For citations please refer to: https://tddft.org/programs/libxc/

 This ORCA versions uses:
   CBLAS   interface :  Fast vector & matrix operations
   LAPACKE interface :  Fast linear algebra routines
   SCALAPACK package :  Parallel linear algebra routines


----- Orbital basis set information -----
Your calculation utilizes the basis: aug-cc-pVTZ 
    H, B-Ne : Obtained from the ccRepo (grant-hill.group.shef.ac.uk/ccrepo) Feb. 2017
              R. A. Kendall, T. H. Dunning, Jr., R. J. Harrison, J. Chem. Phys. 96, 6796 (1992)
         He : Obtained from the ccRepo (grant-hill.group.shef.ac.uk/ccrepo) Feb. 2017
              D. E. Woon, T. H. Dunning, Jr., J. Chem. Phys. 100, 2975 (1994)
  Li-Be, Na : Obtained from the ccRepo (grant-hill.group.shef.ac.uk/ccrepo) Feb. 2017
              B. P. Prascher, D. E. Woon, K. A. Peterson, T. H. Dunning, Jr., A. K. Wilson, Theor. Chem. Acc. 128, 69 (2011)
         Mg : Obtained from the Peterson Research Group Website (tyr0.chem.wsu.edu/~kipeters) Feb. 2017
              B. P. Prascher, D. E. Woon, K. A. Peterson, T. H. Dunning, Jr., A. K. Wilson, Theor. Chem. Acc. 128, 69 (2011)
      Al-Ar : Obtained from the ccRepo (grant-hill.group.shef.ac.uk/ccrepo) Feb. 2017
              D. E. Woon, T. H. Dunning, Jr., J. Chem. Phys. 98, 1358 (1993)
      Sc-Zn : Obtained from the ccRepo (grant-hill.group.shef.ac.uk/ccrepo) Feb. 2017
              N. B. Balabanov, K. A. Peterson, J. Chem. Phys. 123, 064107 (2005)
              N. B. Balabanov, K. A. Peterson, J. Chem. Phys. 125, 074110 (2006)
      Ga-Kr : Obtained from the ccRepo (grant-hill.group.shef.ac.uk/ccrepo) Feb. 2017
              A. K. Wilson, D. E. Woon, K. A. Peterson, T. H. Dunning, Jr., J. Chem. Phys. 110, 7667 (1999)
     Ag, Au : Obtained from the Peterson Research Group Website (tyr0.chem.wsu.edu/~kipeters) Feb. 2017
              K. A. Peterson, C. Puzzarini, Theor. Chem. Acc. 114, 283 (2005)

================================================================================
                                        WARNINGS
                       Please study these warnings very carefully!
================================================================================


WARNING: Geometry Optimization
  ===> : Switching off AutoStart
         For restart on a previous wavefunction, please use MOREAD

INFO   : the flag for use of LIBINT has been found!

================================================================================
                                       INPUT FILE
================================================================================
NAME = orca.inp
|  1> !UHF aug-cc-pVTZ OPT
|  2> 
|  3> !veryslowconv
|  4> 
|  5> %scf
|  6> 
|  7> maxiter 1800
|  8> 
|  9> end
| 10> 
| 11> 
| 12> 
| 13> %geom
| 14>   Constraints
| 15>     { B 0 4  C } # Bond constraint on C0--F4
| 16>   end
| 17> end
| 18> 
| 19> *xyz 0 1
| 20> C    -1.559613688    0.717994631    -0.105805894
| 21> H    -0.842002689    1.524209413    -0.047850394
| 22> H    -2.265753993    0.791005851    0.709265810
| 23> H    -2.080853752    0.753040517    -1.052054927
| 24> F    -0.102216968    -1.895847960    0.103530461
| 25> **                         ****END OF INPUT****
================================================================================

                       *****************************
                       * Geometry Optimization Run *
                       *****************************

Geometry optimization settings:
Update method            Update   .... BFGS
Choice of coordinates    CoordSys .... Z-matrix Internals
Initial Hessian          InHess   .... Almoef's Model

Convergence Tolerances:
Energy Change            TolE     ....  5.0000e-06 Eh
Max. Gradient            TolMAXG  ....  3.0000e-04 Eh/bohr
RMS Gradient             TolRMSG  ....  1.0000e-04 Eh/bohr
Max. Displacement        TolMAXD  ....  4.0000e-03 bohr
RMS Displacement         TolRMSD  ....  2.0000e-03 bohr
Strict Convergence                ....  False
------------------------------------------------------------------------------
                        ORCA OPTIMIZATION COORDINATE SETUP
------------------------------------------------------------------------------

The optimization will be done in new redundant internal coordinates
Making redundant internal coordinates   ...  (new redundants) done
Evaluating the initial hessian          ...  (Almloef) done
Evaluating the coordinates              ...  done
Calculating the B-matrix                .... done
Calculating the G-matrix                .... done
Diagonalizing the G-matrix              .... done
Imposing constraints:
 Iter   0:  RMS(Cart)=    0.0000000000 RMS(Int)=    0.0000000000
CONVERGED
The first mode is                       ....    4
The number of degrees of freedom        ....    9
Storing new coordinates                 .... done

    -----------------------------------------------------------------
                    Redundant Internal Coordinates


    -----------------------------------------------------------------
         Definition                    Initial Value    Approx d2E/dq
    -----------------------------------------------------------------
      1. B(H   1,C   0)                  1.0809         0.372366   
      2. B(H   2,C   0)                  1.0809         0.372366   
      3. B(H   3,C   0)                  1.0809         0.372366   
      4. B(F   4,H   3)                  3.5024         0.000042   
      5. B(F   4,H   1)                  3.5024         0.000042   
      6. B(F   4,C   0)                  3.0000         0.001404 C 
      7. B(F   4,H   2)                  3.5024         0.000042   
      8. A(H   2,C   0,H   3)          110.0548         0.293923   
      9. A(H   1,C   0,F   4)          108.8812         0.155076   
     10. A(H   2,C   0,F   4)          108.8812         0.155076   
     11. A(H   3,C   0,F   4)          108.8812         0.155076   
     12. A(H   1,C   0,H   2)          110.0548         0.293923   
     13. A(H   1,C   0,H   3)          110.0548         0.293923   
    -----------------------------------------------------------------

Number of atoms                         .... 5
Number of degrees of freedom            .... 13

         *************************************************************
         *                GEOMETRY OPTIMIZATION CYCLE   1            *
         *************************************************************
---------------------------------
CARTESIAN COORDINATES (ANGSTROEM)
---------------------------------
  C     -1.559614    0.717995   -0.105806
  H     -0.842003    1.524209   -0.047850
  H     -2.265754    0.791006    0.709266
  H     -2.080854    0.753041   -1.052055
  F     -0.102217   -1.895848    0.103530

----------------------------
CARTESIAN COORDINATES (A.U.)
----------------------------
  NO LB      ZA    FRAG     MASS         X           Y           Z
   0 C     6.0000    0    12.011   -2.947243    1.356813   -0.199944
   1 H     1.0000    0     1.008   -1.591154    2.880338   -0.090424
   2 H     1.0000    0     1.008   -4.281655    1.494784    1.340318
   3 H     1.0000    0     1.008   -3.932244    1.423040   -1.988096
   4 F     9.0000    0    18.998   -0.193162   -3.582633    0.195644

--------------------------------
INTERNAL COORDINATES (ANGSTROEM)
--------------------------------
 C      0   0   0     0.000000000000     0.00000000     0.00000000
 H      1   0   0     1.080882352794     0.00000000     0.00000000
 H      1   2   0     1.080882348479   110.05475732     0.00000000
 H      1   2   3     1.080882348314   110.05475684   121.45845560
 F      1   2   3     2.999999999920   108.88118577   240.72922824

---------------------------
INTERNAL COORDINATES (A.U.)
---------------------------
 C      0   0   0     0.000000000000     0.00000000     0.00000000
 H      1   0   0     2.042571629769     0.00000000     0.00000000
 H      1   2   0     2.042571621614   110.05475732     0.00000000
 H      1   2   3     2.042571621304   110.05475684   121.45845560
 F      1   2   3     5.669178401612   108.88118577   240.72922824

---------------------
BASIS SET INFORMATION
---------------------
There are 3 groups of distinct atoms

 Group   1 Type C   : 19s6p3d2f contracted to 5s4p3d2f pattern {88111/3111/111/11}
 Group   2 Type H   : 6s3p2d contracted to 4s3p2d pattern {3111/111/11}
 Group   3 Type F   : 19s6p3d2f contracted to 5s4p3d2f pattern {88111/3111/111/11}

Atom   0C    basis set group =>   1
Atom   1H    basis set group =>   2
Atom   2H    basis set group =>   2
Atom   3H    basis set group =>   2
Atom   4F    basis set group =>   3
------------------------------------------------------------------------------
                           ORCA GTO INTEGRAL CALCULATION
------------------------------------------------------------------------------

                         BASIS SET STATISTICS AND STARTUP INFO

 # of primitive gaussian shells          ...   93
 # of primitive gaussian functions       ...  207
 # of contracted shells                  ...   55
 # of contracted basis functions         ...  161
 Highest angular momentum                ...    3
 Maximum contraction depth               ...    8
 Integral package used                   ... LIBINT
 Integral threshhold            Thresh   ...  2.500e-11
 Primitive cut-off              TCut     ...  2.500e-12


------------------------------ INTEGRAL EVALUATION ----------------------------


 * One electron integrals 
 Pre-screening matrix                    ... done
 Shell pair data                         ... done (   0.001 sec)

-------------------------------------------------------------------------------
                                 ORCA SCF
-------------------------------------------------------------------------------

------------
SCF SETTINGS
------------
Hamiltonian:
 Ab initio Hamiltonian  Method          .... Hartree-Fock(GTOs)


General Settings:
 Integral files         IntName         .... orca
 Hartree-Fock type      HFTyp           .... UHF
 Total Charge           Charge          ....    0
 Multiplicity           Mult            ....    1
 Number of Electrons    NEL             ....   18
 Basis Dimension        Dim             ....  161
 Nuclear Repulsion      ENuc            ....     23.3132047144 Eh

Convergence Acceleration:
 DIIS                   CNVDIIS         .... on
   Start iteration      DIISMaxIt       ....     0
   Startup error        DIISStart       ....  0.200000
   # of expansion vecs  DIISMaxEq       ....     5
   Bias factor          DIISBfac        ....   1.050
   Max. coefficient     DIISMaxC        ....  10.000
 Newton-Raphson         CNVNR           .... off
 SOSCF                  CNVSOSCF        .... off
 Level Shifting         CNVShift        .... on
   Level shift para.    LevelShift      ....    0.2500
   Turn off err/grad.   ShiftErr        ....    0.0000
 Zerner damping         CNVZerner       .... off
 Static damping         CNVDamp         .... on
   Fraction old density DampFac         ....    0.9200
   Max. Damping (<1)    DampMax         ....    0.9800
   Min. Damping (>=0)   DampMin         ....    0.0000
   Turn off err/grad.   DampErr         ....    0.0030
 Fernandez-Rico         CNVRico         .... off

SCF Procedure:
 Maximum # iterations   MaxIter         ....  1800
 SCF integral mode      SCFMode         .... Direct
   Integral package                     .... LIBINT
 Reset frequency        DirectResetFreq ....    20
 Integral Threshold     Thresh          ....  2.500e-11 Eh
 Primitive CutOff       TCut            ....  2.500e-12 Eh

Convergence Tolerance:
 Convergence Check Mode ConvCheckMode   .... Total+1el-Energy
 Convergence forced     ConvForced      .... 0
 Energy Change          TolE            ....  1.000e-08 Eh
 1-El. energy change                    ....  1.000e-05 Eh
 DIIS Error             TolErr          ....  5.000e-07


Diagonalization of the overlap matrix:
Smallest eigenvalue                        ... 1.239e-04
Time for diagonalization                   ...    0.097 sec
Threshold for overlap eigenvalues          ... 1.000e-08
Number of eigenvalues below threshold      ... 0
Time for construction of square roots      ...    0.002 sec
Total time needed                          ...    0.099 sec

-------------------
DFT GRID GENERATION
-------------------

General Integration Accuracy     IntAcc      ...  4.340
Radial Grid Type                 RadialGrid  ... Gauss-Chebyshev
Angular Grid (max. acc.)         AngularGrid ... Lebedev-110
Angular grid pruning method      GridPruning ... 3 (G Style)
Weight generation scheme         WeightScheme... Becke
Basis function cutoff            BFCut       ...    1.0000e-11
Integration weight cutoff        WCut        ...    1.0000e-14
Grids for H and He will be reduced by one unit

# of grid points (after initial pruning)     ...   5778 (   0.0 sec)
# of grid points (after weights+screening)   ...   5666 (   0.0 sec)
nearest neighbour list constructed           ...    0.0 sec
Grid point re-assignment to atoms done       ...    0.0 sec
Grid point division into batches done        ...    0.0 sec
Reduced shell lists constructed in    0.0 sec

Total number of grid points                  ...     5666
Total number of batches                      ...       92
Average number of points per batch           ...       61
Average number of grid points per atom       ...     1133
Average number of shells per batch           ...    46.18 (83.97%)
Average number of basis functions per batch  ...   133.06 (82.65%)
Average number of large shells per batch     ...    41.00 (88.78%)
Average number of large basis fcns per batch ...   117.04 (87.96%)
Maximum spatial batch extension              ...  21.59, 23.60, 22.48 au
Average spatial batch extension              ...   5.55,  5.04,  4.70 au

Time for grid setup =    0.048 sec

------------------------------
INITIAL GUESS: MODEL POTENTIAL
------------------------------
Loading Hartree-Fock densities                     ... done
Calculating cut-offs                               ... done
Setting up the integral package                    ... done
Initializing the effective Hamiltonian             ... done
Starting the Coulomb interaction                   ... done (   0.0 sec)
Reading the grid                                   ... done
Mapping shells                                     ... done
Starting the XC term evaluation                    ... done (   0.0 sec)
Transforming the Hamiltonian                       ... done (   0.0 sec)
Diagonalizing the Hamiltonian                      ... done (   0.0 sec)
Back transforming the eigenvectors                 ... done (   0.0 sec)
Now organizing SCF variables                       ... done
                      ------------------
                      INITIAL GUESS DONE (   0.2 sec)
                      ------------------
--------------
SCF ITERATIONS
--------------
ITER       Energy         Delta-E        Max-DP      RMS-DP      [F,P]     Damp
               ***  Starting incremental Fock matrix formation  ***
  0   -138.7261361437   0.000000000000 0.00408338  0.00010825  0.4144052 0.9200
  1   -138.7409183436  -0.014782199916 0.00433241  0.00011375  0.3637128 0.9200
                               ***Turning on DIIS***
  2   -138.7539443575  -0.013026013903 0.00404555  0.00010554  0.3112748 0.9200
  3   -139.0421235798  -0.288179222286 0.00320776  0.00008589  0.2643873 0.9200
  4   -139.2981792163  -0.256055636572 0.00284776  0.00006811  0.2296079 0.9200
  5   -139.3807008881  -0.082521671767 0.00263831  0.00005770  0.2058182 0.9200
  6   -139.3935874086  -0.012886520552 0.00244342  0.00005146  0.1880444 0.9200
  7   -139.3124904725   0.081096936184 0.00226200  0.00004815  0.1734140 0.9200
  8   -139.2411764676   0.071314004868 0.00208905  0.00004544  0.1593296 0.9200
  9   -139.1960299346   0.045146532981 0.00192417  0.00004236  0.1455953 0.9200
 10   -139.1667951830   0.029234751591 0.00177024  0.00003902  0.1327174 0.9200
 11   -139.1419879665   0.024807216486 0.00162865  0.00003578  0.1210053 0.9200
 12   -139.1171144567   0.024873509873 0.00149925  0.00003286  0.1104475 0.9200
 13   -139.0928512646   0.024263192052 0.00138068  0.00003024  0.1008828 0.9200
 14   -139.0703946454   0.022456619189 0.00127160  0.00002788  0.0921634 0.9200
 15   -139.0502236626   0.020170982847 0.00117105  0.00002570  0.0841935 0.9200
 16   -139.0321674315   0.018056231107 0.00107835  0.00002369  0.0769115 0.9200
 17   -139.0158524528   0.016314978716 0.00099295  0.00002184  0.0702663 0.9200
 18   -139.0009993402   0.014853112503 0.00091433  0.00002013  0.0642062 0.9200
 19   -138.9874510056   0.013548334685 0.00084196  0.00001857  0.0586796 0.9200
               *** Restarting incremental Fock matrix formation ***
                                   *** Resetting DIIS ***
 20   -138.8297675554   0.157683450150 0.00075602  0.00001832  0.0536379 0.9200
 21   -138.8658541240  -0.036086568578 0.00070000  0.00001642  0.0468695 0.9200
 22   -138.9122473228  -0.046393198825 0.00064982  0.00001427  0.0412867 0.9200
 23   -138.9321644284  -0.019917105541 0.00060264  0.00001281  0.0372695 0.9200
 24   -138.9371895011  -0.005025072751 0.00055829  0.00001181  0.0342222 0.9200
 25   -138.9234731228   0.013716378322 0.00051613  0.00001112  0.0316876 0.9200
 26   -138.9117831568   0.011689965967 0.00047630  0.00001050  0.0292190 0.9200
 27   -138.9049930792   0.006790077593 0.00043870  0.00000984  0.0267980 0.9200
 28   -138.9010334165   0.003959662734 0.00040373  0.00000915  0.0245236 0.9200
 29   -138.8976163423   0.003417074236 0.00037157  0.00000848  0.0224546 0.9200
 30   -138.8938432704   0.003773071869 0.00034213  0.00000788  0.0205877 0.9200
 31   -138.8899778307   0.003865439734 0.00031512  0.00000733  0.0188907 0.9200
 32   -138.8863688645   0.003608966176 0.00029025  0.00000682  0.0173357 0.9200
 33   -138.8831534096   0.003215454869 0.00026732  0.00000636  0.0159072 0.9200
 34   -138.8802884882   0.002864921384 0.00024618  0.00000592  0.0145965 0.9200
 35   -138.8776830650   0.002605423254 0.00022671  0.00000552  0.0134290 0.9200
 36   -138.8752820482   0.002401016729 0.00020878  0.00000514  0.0123859 0.9200
 37   -138.8730676141   0.002214434139 0.00019228  0.00000479  0.0114234 0.9200
 38   -138.8710350809   0.002032533231 0.00017708  0.00000447  0.0105353 0.9200
 39   -138.8691766262   0.001858454701 0.00016308  0.00000418  0.0097160 0.9200
               *** Restarting incremental Fock matrix formation ***
                                   *** Resetting DIIS ***
 40   -138.8445715034   0.024605122812 0.00014587  0.00000356  0.0089600 0.9200
 41   -138.8493101428  -0.004738639411 0.00013508  0.00000321  0.0083598 0.9200
 42   -138.8566982184  -0.007388075624 0.00012556  0.00000295  0.0077785 0.9200
 43   -138.8608648336  -0.004166615173 0.00011669  0.00000281  0.0072006 0.9200
 44   -138.8623071520  -0.001442318460 0.00010832  0.00000272  0.0066409 0.9200
 45   -138.8597258413   0.002581310732 0.00010014  0.00000264  0.0061122 0.9200
 46   -138.8578616293   0.001864211987 0.00009238  0.00000256  0.0056307 0.9200
 47   -138.8571217690   0.000739860273 0.00008507  0.00000246  0.0051915 0.9200
 48   -138.8568573106   0.000264458461 0.00007830  0.00000235  0.0047871 0.9200
 49   -138.8565457379   0.000311572625 0.00007209  0.00000223  0.0044129 0.9200
 50   -138.8560302149   0.000515523095 0.00006796  0.00000212  0.0040668 0.9200
 51   -138.8554426852   0.000587529693 0.00006447  0.00000202  0.0037476 0.9200
 52   -138.8549006226   0.000542062585 0.00006112  0.00000192  0.0034535 0.9200
 53   -138.8544358198   0.000464802754 0.00005779  0.00000182  0.0031827 0.9200
 54   -138.8540246658   0.000411154056 0.00068158  0.00002161  0.0029331 0.0000
 55   -138.8490850883   0.004939577448 0.00013217  0.00000371  0.0006876 0.0000
 56   -138.8491670555  -0.000081967135 0.00009791  0.00000263  0.0004243 0.0000
 57   -138.8486986081   0.000468447371 0.00008323  0.00000280  0.0002339 0.0000
 58   -138.8488656854  -0.000167077370 0.00004229  0.00000152  0.0001888 0.0000
 59   -138.8486112964   0.000254389005 0.00002742  0.00000107  0.0001160 0.0000
               *** Restarting incremental Fock matrix formation ***
                                   *** Resetting DIIS ***
 60   -138.8481188479   0.000492448524 0.00001194  0.00000042  0.0000716 0.0000
 61   -138.8480015479   0.000117300046 0.00000793  0.00000019  0.0000664 0.0000
 62   -138.8481005780  -0.000099030078 0.00000727  0.00000018  0.0000209 0.0000
 63   -138.8481620296  -0.000061451633 0.00000594  0.00000016  0.0000165 0.0000
 64   -138.8481719357  -0.000009906135 0.00000290  0.00000011  0.0000129 0.0000
 65   -138.8481537403   0.000018195419 0.00000263  0.00000007  0.0000089 0.0000
 66   -138.8481396831   0.000014057232 0.00000131  0.00000005  0.0000048 0.0000
 67   -138.8481311838   0.000008499227 0.00000066  0.00000002  0.0000032 0.0000
 68   -138.8481246078   0.000006576034 0.00000041  0.00000001  0.0000015 0.0000
                            ***DIIS convergence achieved***

               *****************************************************
               *                     SUCCESS                       *
               *           SCF CONVERGED AFTER  69 CYCLES          *
               *****************************************************


----------------
TOTAL SCF ENERGY
----------------

Total Energy       :         -138.84812168 Eh           -3778.24947 eV

Components:
Nuclear Repulsion  :           23.31320471 Eh             634.38455 eV
Electronic Energy  :         -162.16132640 Eh           -4412.63403 eV
One Electron Energy:         -238.95699705 Eh           -6502.35046 eV
Two Electron Energy:           76.79567065 Eh            2089.71644 eV

Virial components:
Potential Energy   :         -277.38095499 Eh           -7547.91951 eV
Kinetic Energy     :          138.53283330 Eh            3769.67004 eV
Virial Ratio       :            2.00227591


---------------
SCF CONVERGENCE
---------------

  Last Energy change         ...    2.9261e-06  Tolerance :   1.0000e-08
  Last MAX-Density change    ...    1.7967e-07  Tolerance :   1.0000e-07
  Last RMS-Density change    ...    4.7753e-09  Tolerance :   5.0000e-09
  Last DIIS Error            ...    9.8456e-07  Tolerance :   5.0000e-07

             **** THE GBW FILE WAS UPDATED (orca.gbw) ****
             **** DENSITY FILE WAS UPDATED (orca.scfp) ****
             **** ENERGY FILE WAS UPDATED (orca.en.tmp) ****
----------------------
UHF SPIN CONTAMINATION
----------------------

Expectation value of <S**2>     :     0.000000
Ideal value S*(S+1) for S=0.0   :     0.000000
Deviation                       :     0.000000

             **** THE GBW FILE WAS UPDATED (orca.gbw) ****
             **** DENSITY FILE WAS UPDATED (orca.scfp) ****
----------------
ORBITAL ENERGIES
----------------
                 SPIN UP ORBITALS
  NO   OCC          E(Eh)            E(eV) 
   0   1.0000     -26.099259      -710.1969 
   1   1.0000     -11.472640      -312.1864 
   2   1.0000      -1.322174       -35.9782 
   3   1.0000      -1.079192       -29.3663 
   4   1.0000      -0.728739       -19.8300 
   5   1.0000      -0.728739       -19.8300 
   6   1.0000      -0.434523       -11.8240 
   7   1.0000      -0.434523       -11.8240 
   8   1.0000      -0.383039       -10.4230 
   9   0.0000      -0.101757        -2.7689 
  10   0.0000       0.001844         0.0502 
  11   0.0000       0.027839         0.7575 
  12   0.0000       0.027839         0.7575 
  13   0.0000       0.087199         2.3728 
  14   0.0000       0.104342         2.8393 
  15   0.0000       0.105873         2.8809 
  16   0.0000       0.105873         2.8809 
  17   0.0000       0.159757         4.3472 
  18   0.0000       0.159757         4.3472 
  19   0.0000       0.189752         5.1634 
  20   0.0000       0.189752         5.1634 
  21   0.0000       0.217967         5.9312 
  22   0.0000       0.279628         7.6091 
  23   0.0000       0.294130         8.0037 
  24   0.0000       0.294130         8.0037 
  25   0.0000       0.306076         8.3288 
  26   0.0000       0.318770         8.6742 
  27   0.0000       0.321345         8.7442 
  28   0.0000       0.321345         8.7442 
  29   0.0000       0.345866         9.4115 
  30   0.0000       0.349276         9.5043 
  31   0.0000       0.349276         9.5043 
  32   0.0000       0.371212        10.1012 
  33   0.0000       0.389050        10.5866 
  34   0.0000       0.389050        10.5866 
  35   0.0000       0.438005        11.9187 
  36   0.0000       0.438005        11.9187 
  37   0.0000       0.461525        12.5587 
  38   0.0000       0.573256        15.5991 
  39   0.0000       0.573256        15.5991 
  40   0.0000       0.641595        17.4587 
  41   0.0000       0.686732        18.6869 
  42   0.0000       0.749419        20.3927 
  43   0.0000       0.749419        20.3927 
  44   0.0000       0.781790        21.2736 
  45   0.0000       0.781790        21.2736 
  46   0.0000       0.804686        21.8966 
  47   0.0000       0.808687        22.0055 
  48   0.0000       0.876821        23.8595 
  49   0.0000       0.876821        23.8595 
  50   0.0000       0.907241        24.6873 
  51   0.0000       0.933740        25.4084 
  52   0.0000       0.941772        25.6269 
  53   0.0000       0.941772        25.6269 
  54   0.0000       0.990733        26.9592 
  55   0.0000       0.990733        26.9592 
  56   0.0000       0.995799        27.0971 
  57   0.0000       1.004218        27.3262 
  58   0.0000       1.004218        27.3262 
  59   0.0000       1.046071        28.4650 
  60   0.0000       1.076896        29.3038 
  61   0.0000       1.076896        29.3038 
  62   0.0000       1.090478        29.6734 
  63   0.0000       1.090478        29.6734 
  64   0.0000       1.206018        32.8174 
  65   0.0000       1.217506        33.1300 
  66   0.0000       1.217506        33.1300 
  67   0.0000       1.250312        34.0227 
  68   0.0000       1.326435        36.0941 
  69   0.0000       1.326435        36.0941 
  70   0.0000       1.362398        37.0727 
  71   0.0000       1.362398        37.0727 
  72   0.0000       1.446676        39.3661 
  73   0.0000       1.471433        40.0397 
  74   0.0000       1.471433        40.0397 
  75   0.0000       1.515165        41.2297 
  76   0.0000       1.521840        41.4114 
  77   0.0000       1.521840        41.4114 
  78   0.0000       1.529533        41.6207 
  79   0.0000       1.654276        45.0151 
  80   0.0000       1.743609        47.4460 
  81   0.0000       1.743610        47.4460 
  82   0.0000       1.827935        49.7407 
  83   0.0000       1.845468        50.2177 
  84   0.0000       1.899358        51.6842 
  85   0.0000       1.899358        51.6842 
  86   0.0000       2.016461        54.8707 
  87   0.0000       2.060748        56.0758 
  88   0.0000       2.060748        56.0758 
  89   0.0000       2.175136        59.1885 
  90   0.0000       2.775316        75.5202 
  91   0.0000       2.872530        78.1655 
  92   0.0000       2.872530        78.1655 
  93   0.0000       2.908391        79.1413 
  94   0.0000       3.061803        83.3159 
  95   0.0000       3.061803        83.3159 
  96   0.0000       3.083717        83.9122 
  97   0.0000       3.083717        83.9122 
  98   0.0000       3.109362        84.6100 
  99   0.0000       3.109747        84.6205 
 100   0.0000       3.111954        84.6806 
 101   0.0000       3.114012        84.7366 
 102   0.0000       3.114012        84.7366 
 103   0.0000       3.136378        85.3452 
 104   0.0000       3.136378        85.3452 
 105   0.0000       3.228545        87.8532 
 106   0.0000       3.324433        90.4624 
 107   0.0000       3.324433        90.4624 
 108   0.0000       3.404022        92.6281 
 109   0.0000       3.404022        92.6281 
 110   0.0000       3.421833        93.1128 
 111   0.0000       3.476334        94.5959 
 112   0.0000       3.476334        94.5959 
 113   0.0000       3.538473        96.2868 
 114   0.0000       3.594876        97.8216 
 115   0.0000       3.669191        99.8438 
 116   0.0000       3.669191        99.8438 
 117   0.0000       3.848383       104.7198 
 118   0.0000       3.848383       104.7198 
 119   0.0000       3.910642       106.4140 
 120   0.0000       3.912358       106.4607 
 121   0.0000       3.974580       108.1538 
 122   0.0000       3.974580       108.1538 
 123   0.0000       4.257617       115.8556 
 124   0.0000       4.257617       115.8556 
 125   0.0000       4.264319       116.0380 
 126   0.0000       4.552412       123.8774 
 127   0.0000       4.585395       124.7749 
 128   0.0000       4.585395       124.7749 
 129   0.0000       4.715425       128.3132 
 130   0.0000       4.715425       128.3132 
 131   0.0000       4.718675       128.4017 
 132   0.0000       4.951790       134.7451 
 133   0.0000       4.994366       135.9036 
 134   0.0000       4.994366       135.9036 
 135   0.0000       5.271084       143.4335 
 136   0.0000       5.325726       144.9204 
 137   0.0000       5.325726       144.9204 
 138   0.0000       5.456956       148.4913 
 139   0.0000       5.456956       148.4913 
 140   0.0000       5.516281       150.1056 
 141   0.0000       5.549958       151.0220 
 142   0.0000       5.746693       156.3755 
 143   0.0000       5.904268       160.6633 
 144   0.0000       5.904268       160.6633 
 145   0.0000       6.371666       173.3819 
 146   0.0000       6.371667       173.3819 
 147   0.0000       9.023264       245.5355 
 148   0.0000       9.023264       245.5355 
 149   0.0000       9.029414       245.7029 
 150   0.0000       9.029491       245.7050 
 151   0.0000       9.035509       245.8687 
 152   0.0000       9.035509       245.8687 
 153   0.0000       9.069923       246.8051 
 154   0.0000       9.508768       258.7467 
 155   0.0000       9.508768       258.7467 
 156   0.0000       9.559707       260.1328 
 157   0.0000       9.559707       260.1328 
 158   0.0000       9.618060       261.7207 
 159   0.0000      11.136172       303.0306 
 160   0.0000      16.370610       445.4670 

                 SPIN DOWN ORBITALS
  NO   OCC          E(Eh)            E(eV) 
   0   1.0000     -26.099259      -710.1969 
   1   1.0000     -11.472640      -312.1864 
   2   1.0000      -1.322174       -35.9782 
   3   1.0000      -1.079192       -29.3663 
   4   1.0000      -0.728739       -19.8300 
   5   1.0000      -0.728739       -19.8300 
   6   1.0000      -0.434523       -11.8240 
   7   1.0000      -0.434523       -11.8240 
   8   1.0000      -0.383039       -10.4230 
   9   0.0000      -0.101757        -2.7689 
  10   0.0000       0.001844         0.0502 
  11   0.0000       0.027839         0.7575 
  12   0.0000       0.027839         0.7575 
  13   0.0000       0.087199         2.3728 
  14   0.0000       0.104342         2.8393 
  15   0.0000       0.105873         2.8809 
  16   0.0000       0.105873         2.8809 
  17   0.0000       0.159757         4.3472 
  18   0.0000       0.159757         4.3472 
  19   0.0000       0.189752         5.1634 
  20   0.0000       0.189752         5.1634 
  21   0.0000       0.217967         5.9312 
  22   0.0000       0.279628         7.6091 
  23   0.0000       0.294130         8.0037 
  24   0.0000       0.294130         8.0037 
  25   0.0000       0.306076         8.3288 
  26   0.0000       0.318770         8.6742 
  27   0.0000       0.321345         8.7442 
  28   0.0000       0.321345         8.7442 
  29   0.0000       0.345866         9.4115 
  30   0.0000       0.349276         9.5043 
  31   0.0000       0.349276         9.5043 
  32   0.0000       0.371212        10.1012 
  33   0.0000       0.389050        10.5866 
  34   0.0000       0.389050        10.5866 
  35   0.0000       0.438005        11.9187 
  36   0.0000       0.438005        11.9187 
  37   0.0000       0.461525        12.5587 
  38   0.0000       0.573256        15.5991 
  39   0.0000       0.573256        15.5991 
  40   0.0000       0.641595        17.4587 
  41   0.0000       0.686732        18.6869 
  42   0.0000       0.749419        20.3927 
  43   0.0000       0.749419        20.3927 
  44   0.0000       0.781790        21.2736 
  45   0.0000       0.781790        21.2736 
  46   0.0000       0.804686        21.8966 
  47   0.0000       0.808687        22.0055 
  48   0.0000       0.876821        23.8595 
  49   0.0000       0.876821        23.8595 
  50   0.0000       0.907241        24.6873 
  51   0.0000       0.933740        25.4084 
  52   0.0000       0.941772        25.6269 
  53   0.0000       0.941772        25.6269 
  54   0.0000       0.990733        26.9592 
  55   0.0000       0.990733        26.9592 
  56   0.0000       0.995799        27.0971 
  57   0.0000       1.004218        27.3262 
  58   0.0000       1.004218        27.3262 
  59   0.0000       1.046071        28.4650 
  60   0.0000       1.076896        29.3038 
  61   0.0000       1.076896        29.3038 
  62   0.0000       1.090478        29.6734 
  63   0.0000       1.090478        29.6734 
  64   0.0000       1.206018        32.8174 
  65   0.0000       1.217506        33.1300 
  66   0.0000       1.217506        33.1300 
  67   0.0000       1.250312        34.0227 
  68   0.0000       1.326435        36.0941 
  69   0.0000       1.326435        36.0941 
  70   0.0000       1.362398        37.0727 
  71   0.0000       1.362398        37.0727 
  72   0.0000       1.446676        39.3661 
  73   0.0000       1.471433        40.0397 
  74   0.0000       1.471433        40.0397 
  75   0.0000       1.515165        41.2297 
  76   0.0000       1.521840        41.4114 
  77   0.0000       1.521840        41.4114 
  78   0.0000       1.529533        41.6207 
  79   0.0000       1.654276        45.0151 
  80   0.0000       1.743609        47.4460 
  81   0.0000       1.743610        47.4460 
  82   0.0000       1.827935        49.7407 
  83   0.0000       1.845468        50.2177 
  84   0.0000       1.899358        51.6842 
  85   0.0000       1.899358        51.6842 
  86   0.0000       2.016461        54.8707 
  87   0.0000       2.060748        56.0758 
  88   0.0000       2.060748        56.0758 
  89   0.0000       2.175136        59.1885 
  90   0.0000       2.775316        75.5202 
  91   0.0000       2.872530        78.1655 
  92   0.0000       2.872530        78.1655 
  93   0.0000       2.908391        79.1413 
  94   0.0000       3.061803        83.3159 
  95   0.0000       3.061803        83.3159 
  96   0.0000       3.083717        83.9122 
  97   0.0000       3.083717        83.9122 
  98   0.0000       3.109362        84.6100 
  99   0.0000       3.109747        84.6205 
 100   0.0000       3.111954        84.6806 
 101   0.0000       3.114012        84.7366 
 102   0.0000       3.114012        84.7366 
 103   0.0000       3.136378        85.3452 
 104   0.0000       3.136378        85.3452 
 105   0.0000       3.228545        87.8532 
 106   0.0000       3.324433        90.4624 
 107   0.0000       3.324433        90.4624 
 108   0.0000       3.404022        92.6281 
 109   0.0000       3.404022        92.6281 
 110   0.0000       3.421833        93.1128 
 111   0.0000       3.476334        94.5959 
 112   0.0000       3.476334        94.5959 
 113   0.0000       3.538473        96.2868 
 114   0.0000       3.594876        97.8216 
 115   0.0000       3.669191        99.8438 
 116   0.0000       3.669191        99.8438 
 117   0.0000       3.848383       104.7198 
 118   0.0000       3.848383       104.7198 
 119   0.0000       3.910642       106.4140 
 120   0.0000       3.912358       106.4607 
 121   0.0000       3.974580       108.1538 
 122   0.0000       3.974580       108.1538 
 123   0.0000       4.257617       115.8556 
 124   0.0000       4.257617       115.8556 
 125   0.0000       4.264319       116.0380 
 126   0.0000       4.552412       123.8774 
 127   0.0000       4.585395       124.7749 
 128   0.0000       4.585395       124.7749 
 129   0.0000       4.715425       128.3132 
 130   0.0000       4.715425       128.3132 
 131   0.0000       4.718675       128.4017 
 132   0.0000       4.951790       134.7451 
 133   0.0000       4.994366       135.9036 
 134   0.0000       4.994366       135.9036 
 135   0.0000       5.271084       143.4335 
 136   0.0000       5.325726       144.9204 
 137   0.0000       5.325726       144.9204 
 138   0.0000       5.456956       148.4913 
 139   0.0000       5.456956       148.4913 
 140   0.0000       5.516281       150.1056 
 141   0.0000       5.549958       151.0220 
 142   0.0000       5.746693       156.3755 
 143   0.0000       5.904268       160.6633 
 144   0.0000       5.904268       160.6633 
 145   0.0000       6.371666       173.3819 
 146   0.0000       6.371667       173.3819 
 147   0.0000       9.023264       245.5355 
 148   0.0000       9.023264       245.5355 
 149   0.0000       9.029414       245.7029 
 150   0.0000       9.029491       245.7050 
 151   0.0000       9.035509       245.8687 
 152   0.0000       9.035509       245.8687 
 153   0.0000       9.069923       246.8051 
 154   0.0000       9.508768       258.7467 
 155   0.0000       9.508768       258.7467 
 156   0.0000       9.559707       260.1328 
 157   0.0000       9.559707       260.1328 
 158   0.0000       9.618060       261.7207 
 159   0.0000      11.136172       303.0306 
 160   0.0000      16.370610       445.4670 

                    ********************************
                    * MULLIKEN POPULATION ANALYSIS *
                    ********************************

--------------------------------------------
MULLIKEN ATOMIC CHARGES AND SPIN POPULATIONS
--------------------------------------------
   0 C :   -0.638377    0.000000
   1 H :    0.463334    0.000000
   2 H :    0.463333    0.000000
   3 H :    0.463334    0.000000
   4 F :   -0.751625    0.000000
Sum of atomic charges         :   -0.0000000
Sum of atomic spin populations:    0.0000000

-----------------------------------------------------
MULLIKEN REDUCED ORBITAL CHARGES AND SPIN POPULATIONS
-----------------------------------------------------
CHARGE
  0 C s       :     3.528020  s :     3.528020
      pz      :     1.368070  p :     2.977361
      px      :     1.103759
      py      :     0.505532
      dz2     :     0.027089  d :     0.125215
      dxz     :     0.046040
      dyz     :     0.007772
      dx2y2   :     0.014311
      dxy     :     0.030003
      f0      :     0.000341  f :     0.007781
      f+1     :     0.002514
      f-1     :     0.000846
      f+2     :     0.001751
      f-2     :     0.000247
      f+3     :     0.001544
      f-3     :     0.000538
  1 H s       :     0.502690  s :     0.502690
      pz      :     0.006600  p :     0.030158
      px      :     0.018231
      py      :     0.005327
      dz2     :     0.000077  d :     0.003818
      dxz     :     0.001606
      dyz     :     0.001064
      dx2y2   :     0.001157
      dxy     :    -0.000086
  2 H s       :     0.502690  s :     0.502690
      pz      :     0.017113  p :     0.030159
      px      :     0.008910
      py      :     0.004136
      dz2     :     0.001935  d :     0.003818
      dxz     :     0.000188
      dyz     :     0.000748
      dx2y2   :     0.000331
      dxy     :     0.000617
  3 H s       :     0.502690  s :     0.502690
      pz      :     0.018931  p :     0.030159
      px      :     0.006718
      py      :     0.004510
      dz2     :     0.001419  d :     0.003818
      dxz     :     0.000840
      dyz     :     0.001038
      dx2y2   :     0.000177
      dxy     :     0.000343
  4 F s       :     4.001021  s :     4.001021
      pz      :     1.994589  p :     5.749003
      px      :     1.939523
      py      :     1.814891
      dz2     :     0.000317  d :     0.001546
      dxz     :     0.000031
      dyz     :     0.000110
      dx2y2   :     0.000357
      dxy     :     0.000731
      f0      :     0.000003  f :     0.000055
      f+1     :     0.000004
      f-1     :     0.000011
      f+2     :     0.000001
      f-2     :     0.000004
      f+3     :     0.000025
      f-3     :     0.000006

SPIN
  0 C s       :     0.000000  s :     0.000000
      pz      :     0.000000  p :     0.000000
      px      :     0.000000
      py      :     0.000000
      dz2     :     0.000000  d :     0.000000
      dxz     :     0.000000
      dyz     :     0.000000
      dx2y2   :     0.000000
      dxy     :     0.000000
      f0      :     0.000000  f :     0.000000
      f+1     :     0.000000
      f-1     :     0.000000
      f+2     :     0.000000
      f-2     :     0.000000
      f+3     :     0.000000
      f-3     :     0.000000
  1 H s       :     0.000000  s :     0.000000
      pz      :     0.000000  p :     0.000000
      px      :     0.000000
      py      :     0.000000
      dz2     :     0.000000  d :     0.000000
      dxz     :     0.000000
      dyz     :     0.000000
      dx2y2   :     0.000000
      dxy     :     0.000000
  2 H s       :     0.000000  s :     0.000000
      pz      :     0.000000  p :     0.000000
      px      :     0.000000
      py      :     0.000000
      dz2     :     0.000000  d :     0.000000
      dxz     :     0.000000
      dyz     :     0.000000
      dx2y2   :     0.000000
      dxy     :     0.000000
  3 H s       :     0.000000  s :     0.000000
      pz      :     0.000000  p :     0.000000
      px      :     0.000000
      py      :     0.000000
      dz2     :     0.000000  d :     0.000000
      dxz     :     0.000000
      dyz     :     0.000000
      dx2y2   :     0.000000
      dxy     :     0.000000
  4 F s       :     0.000000  s :     0.000000
      pz      :     0.000000  p :     0.000000
      px      :     0.000000
      py      :     0.000000
      dz2     :     0.000000  d :     0.000000
      dxz     :     0.000000
      dyz     :     0.000000
      dx2y2   :     0.000000
      dxy     :     0.000000
      f0      :     0.000000  f :     0.000000
      f+1     :     0.000000
      f-1     :     0.000000
      f+2     :     0.000000
      f-2     :     0.000000
      f+3     :     0.000000
      f-3     :     0.000000


                     *******************************
                     * LOEWDIN POPULATION ANALYSIS *
                     *******************************

-------------------------------------------
LOEWDIN ATOMIC CHARGES AND SPIN POPULATIONS
-------------------------------------------
   0 C :    1.169214    0.000000
   1 H :   -0.162692    0.000000
   2 H :   -0.162692    0.000000
   3 H :   -0.162692    0.000000
   4 F :   -0.681139    0.000000

----------------------------------------------------
LOEWDIN REDUCED ORBITAL CHARGES AND SPIN POPULATIONS
----------------------------------------------------
CHARGE
  0 C s       :     2.584199  s :     2.584199
      pz      :     0.908239  p :     1.990851
      px      :     0.736105
      py      :     0.346506
      dz2     :     0.058202  d :     0.219084
      dxz     :     0.076735
      dyz     :     0.005193
      dx2y2   :     0.018909
      dxy     :     0.060045
      f0      :     0.001588  f :     0.036653
      f+1     :     0.011244
      f-1     :     0.004957
      f+2     :     0.008194
      f-2     :     0.001155
      f+3     :     0.006839
      f-3     :     0.002675
  1 H s       :     0.669454  s :     0.669454
      pz      :     0.093548  p :     0.306298
      px      :     0.110667
      py      :     0.102084
      dz2     :     0.012897  d :     0.186940
      dxz     :     0.056356
      dyz     :     0.041223
      dx2y2   :     0.020402
      dxy     :     0.056061
  2 H s       :     0.669454  s :     0.669454
      pz      :     0.140994  p :     0.306298
      px      :     0.119794
      py      :     0.045510
      dz2     :     0.079085  d :     0.186940
      dxz     :     0.047827
      dyz     :     0.015414
      dx2y2   :     0.024684
      dxy     :     0.019931
  3 H s       :     0.669454  s :     0.669454
      pz      :     0.159687  p :     0.306298
      px      :     0.101893
      py      :     0.044718
      dz2     :     0.082034  d :     0.186940
      dxz     :     0.057264
      dyz     :     0.021468
      dx2y2   :     0.012147
      dxy     :     0.014027
  4 F s       :     3.966932  s :     3.966932
      pz      :     1.990035  p :     5.713098
      px      :     1.929752
      py      :     1.793311
      dz2     :     0.000214  d :     0.001069
      dxz     :     0.000025
      dyz     :     0.000082
      dx2y2   :     0.000250
      dxy     :     0.000497
      f0      :     0.000003  f :     0.000040
      f+1     :     0.000003
      f-1     :     0.000007
      f+2     :     0.000001
      f-2     :     0.000003
      f+3     :     0.000017
      f-3     :     0.000006

SPIN
  0 C s       :     0.000000  s :     0.000000
      pz      :     0.000000  p :     0.000000
      px      :     0.000000
      py      :     0.000000
      dz2     :     0.000000  d :     0.000000
      dxz     :     0.000000
      dyz     :     0.000000
      dx2y2   :     0.000000
      dxy     :     0.000000
      f0      :     0.000000  f :     0.000000
      f+1     :     0.000000
      f-1     :     0.000000
      f+2     :     0.000000
      f-2     :     0.000000
      f+3     :     0.000000
      f-3     :     0.000000
  1 H s       :     0.000000  s :     0.000000
      pz      :     0.000000  p :     0.000000
      px      :     0.000000
      py      :     0.000000
      dz2     :     0.000000  d :     0.000000
      dxz     :     0.000000
      dyz     :     0.000000
      dx2y2   :     0.000000
      dxy     :     0.000000
  2 H s       :     0.000000  s :     0.000000
      pz      :     0.000000  p :     0.000000
      px      :     0.000000
      py      :     0.000000
      dz2     :     0.000000  d :     0.000000
      dxz     :     0.000000
      dyz     :     0.000000
      dx2y2   :     0.000000
      dxy     :     0.000000
  3 H s       :     0.000000  s :     0.000000
      pz      :     0.000000  p :     0.000000
      px      :     0.000000
      py      :     0.000000
      dz2     :     0.000000  d :     0.000000
      dxz     :     0.000000
      dyz     :     0.000000
      dx2y2   :     0.000000
      dxy     :     0.000000
  4 F s       :     0.000000  s :     0.000000
      pz      :     0.000000  p :     0.000000
      px      :     0.000000
      py      :     0.000000
      dz2     :     0.000000  d :     0.000000
      dxz     :     0.000000
      dyz     :     0.000000
      dx2y2   :     0.000000
      dxy     :     0.000000
      f0      :     0.000000  f :     0.000000
      f+1     :     0.000000
      f-1     :     0.000000
      f+2     :     0.000000
      f-2     :     0.000000
      f+3     :     0.000000
      f-3     :     0.000000


                      *****************************
                      * MAYER POPULATION ANALYSIS *
                      *****************************

  NA   - Mulliken gross atomic population
  ZA   - Total nuclear charge
  QA   - Mulliken gross atomic charge
  VA   - Mayer's total valence
  BVA  - Mayer's bonded valence
  FA   - Mayer's free valence

  ATOM       NA         ZA         QA         VA         BVA        FA
  0 C      6.6384     6.0000    -0.6384     2.7337     2.7337     0.0000
  1 H      0.5367     1.0000     0.4633     0.8375     0.8375    -0.0000
  2 H      0.5367     1.0000     0.4633     0.8375     0.8375     0.0000
  3 H      0.5367     1.0000     0.4633     0.8375     0.8375    -0.0000
  4 F      9.7516     9.0000    -0.7516     0.4383     0.4383     0.0000

  Mayer bond orders larger than 0.100000
B(  0-C ,  1-H ) :   0.7713 B(  0-C ,  2-H ) :   0.7713 B(  0-C ,  3-H ) :   0.7713 
B(  0-C ,  4-F ) :   0.4197 

-------
TIMINGS
-------

Total SCF time: 0 days 0 hours 3 min 10 sec 

Total time                  ....     190.168 sec
Sum of individual times     ....     189.779 sec  ( 99.8%)

Fock matrix formation       ....     188.832 sec  ( 99.3%)
Diagonalization             ....       0.537 sec  (  0.3%)
Density matrix formation    ....       0.020 sec  (  0.0%)
Population analysis         ....       0.005 sec  (  0.0%)
Initial guess               ....       0.171 sec  (  0.1%)
Orbital Transformation      ....       0.000 sec  (  0.0%)
Orbital Orthonormalization  ....       0.000 sec  (  0.0%)
DIIS solution               ....       0.165 sec  (  0.1%)

-------------------------   --------------------
FINAL SINGLE POINT ENERGY      -138.848121681686
-------------------------   --------------------

------------------------------------------------------------------------------
                         ORCA SCF GRADIENT CALCULATION
------------------------------------------------------------------------------

Gradient of the Hartree-Fock SCF energy:
Hartree-Fock type                ... UHF
Number of operators              ...    2
Number of atoms                  ...    5
Basis set dimensions             ...  161
Integral neglect threshold       ... 2.5e-11
Integral primitive cutoff        ... 2.5e-12

Nuclear repulsion gradient       ... done
One Electron Gradient            ... done
Pre-screening matrix             ... done
Starting the two electron gradient:
Two electron gradient done

------------------
CARTESIAN GRADIENT
------------------

   1   C   :    0.034300381   -0.061517744    0.004926833
   2   H   :   -0.027509563    0.028465197   -0.003501471
   3   H   :   -0.013312364    0.035776468   -0.011051195
   4   H   :   -0.015156129    0.036155035    0.006512132
   5   F   :    0.021677675   -0.038878957    0.003113701

Difference to translation invariance:
           :   -0.0000000000    0.0000000000   -0.0000000000

Norm of the cartesian gradient     ...    0.1082327246
RMS gradient                       ...    0.0279455693
MAX gradient                       ...    0.0615177436

-------
TIMINGS
-------

Total SCF gradient time            ...       12.847 sec

One electron gradient       ....       0.040 sec  (  0.3%)
Prescreening matrices       ....       0.192 sec  (  1.5%)
Two electron gradient       ....      12.462 sec  ( 97.0%)
------------------------------------------------------------------------------
                         ORCA GEOMETRY RELAXATION STEP
------------------------------------------------------------------------------

Reading the OPT-File                    .... done
Getting information on internals        .... done
Copying old internal coords+grads       .... done
Making the new internal coordinates     .... (new redundants).... done
Validating the new internal coordinates .... (new redundants).... done
Calculating the B-matrix                .... done
Calculating the G,G- and P matrices     .... done
Transforming gradient to internals      .... done
Projecting the internal gradient        .... done
Number of atoms                         ....   5
Number of internal coordinates          ....  13
Current Energy                          ....  -138.848121682 Eh
Current gradient norm                   ....     0.108232725 Eh/bohr
Maximum allowed component of the step   ....  0.300
Current trust radius                    ....  0.300
Evaluating the initial hessian          ....  (Almloef) done
Projecting the Hessian                  .... done
Forming the augmented Hessian           .... done
Diagonalizing the augmented Hessian     .... done
Last element of RFO vector              ....  0.890487755
Lowest eigenvalues of augmented Hessian:
 -0.033228337  0.040216166  0.040216167  0.117143944  0.293923086
Length of the computed step             ....  0.510964023
Warning: the length of the step is outside the trust region - taking restricted step instead
The input lambda is                     ....    -0.033228
   iter:   1  x=   -0.073354  g=    4.263718 f(x)=     0.171084
   iter:   2  x=   -0.105736  g=    1.808568 f(x)=     0.058564
   iter:   3  x=   -0.118923  g=    1.047647 f(x)=     0.013816
   iter:   4  x=   -0.120414  g=    0.861106 f(x)=     0.001284
   iter:   5  x=   -0.120430  g=    0.842906 f(x)=     0.000014
   iter:   6  x=   -0.120430  g=    0.842712 f(x)=     0.000000
   iter:   7  x=   -0.120430  g=    0.842712 f(x)=     0.000000
The output lambda is                    ....    -0.120430 (7 iterations)
The final length of the internal step   ....  0.300000000
Converting the step to cartesian space:
 Initial RMS(Int)=    0.0832050294
Transforming coordinates:
 Iter   0:  RMS(Cart)=    0.0529680284 RMS(Int)=    0.0812276249
 Iter   1:  RMS(Cart)=    0.0022900054 RMS(Int)=    0.0037676046
 Iter   2:  RMS(Cart)=    0.0001923558 RMS(Int)=    0.0002336858
 Iter   3:  RMS(Cart)=    0.0000085140 RMS(Int)=    0.0000095009
 Iter   4:  RMS(Cart)=    0.0000006853 RMS(Int)=    0.0000011850
 Iter   5:  RMS(Cart)=    0.0000000676 RMS(Int)=    0.0000000874
Imposing constraints:
 Iter   0:  RMS(Cart)=    0.0005452605 RMS(Int)=    0.0029224260
 Iter   1:  RMS(Cart)=    0.0002726394 RMS(Int)=    0.0014612621
 Iter   2:  RMS(Cart)=    0.0001363243 RMS(Int)=    0.0007306556
 Iter   3:  RMS(Cart)=    0.0000681644 RMS(Int)=    0.0003653401
 Iter   4:  RMS(Cart)=    0.0000340834 RMS(Int)=    0.0001826762
 Iter   5:  RMS(Cart)=    0.0000170423 RMS(Int)=    0.0000913412
 Iter   6:  RMS(Cart)=    0.0000085214 RMS(Int)=    0.0000456721
 Iter   7:  RMS(Cart)=    0.0000042608 RMS(Int)=    0.0000228368
 Iter   8:  RMS(Cart)=    0.0000021305 RMS(Int)=    0.0000114188
 Iter   9:  RMS(Cart)=    0.0000010653 RMS(Int)=    0.0000057096
 Iter  10:  RMS(Cart)=    0.0000005327 RMS(Int)=    0.0000028549
 Iter  11:  RMS(Cart)=    0.0000002663 RMS(Int)=    0.0000014275
 Iter  12:  RMS(Cart)=    0.0000001332 RMS(Int)=    0.0000007138
 Iter  13:  RMS(Cart)=    0.0000000666 RMS(Int)=    0.0000003569
 Iter  14:  RMS(Cart)=    0.0000000333 RMS(Int)=    0.0000001785
 Iter  15:  RMS(Cart)=    0.0000000166 RMS(Int)=    0.0000000892
CONVERGED
done
Storing new coordinates                 .... done

                                .--------------------.
          ----------------------|Geometry convergence|-------------------------
          Item                value                   Tolerance       Converged
          ---------------------------------------------------------------------
          RMS gradient        0.0190103775            0.0001000000      NO
          MAX gradient        0.0255650037            0.0003000000      NO
          RMS step            0.0832050294            0.0020000000      NO
          MAX step            0.1287681618            0.0040000000      NO
          ........................................................
          Max(Bonds)      0.0681      Max(Angles)    4.72
          Max(Dihed)        0.00      Max(Improp)    0.00
          ---------------------------------------------------------------------

The optimization has not yet converged - more geometry cycles are needed


    ---------------------------------------------------------------------------
                         Redundant Internal Coordinates
                            (Angstroem and degrees)

        Definition                    Value    dE/dq     Step     New-Value
    ----------------------------------------------------------------------------
     1. B(H   1,C   0)                1.0809 -0.009263  0.0068    1.0877   
     2. B(H   2,C   0)                1.0809 -0.009263  0.0068    1.0877   
     3. B(H   3,C   0)                1.0809 -0.009263  0.0068    1.0877   
     4. B(F   4,H   3)                3.5024  0.020558 -0.0681    3.4343   
     5. B(F   4,H   1)                3.5024  0.020558 -0.0681    3.4343   
     6. B(F   4,C   0)                3.0000 -0.014364 -0.0000    3.0000 C 
     7. B(F   4,H   2)                3.5024  0.020558 -0.0681    3.4343   
     8. A(H   2,C   0,H   3)          110.05 -0.023465    4.61    114.67   
     9. A(H   1,C   0,F   4)          108.88  0.023996   -4.72    104.16   
    10. A(H   2,C   0,F   4)          108.88  0.023996   -4.72    104.16   
    11. A(H   3,C   0,F   4)          108.88  0.023996   -4.72    104.16   
    12. A(H   1,C   0,H   2)          110.05 -0.023465    4.61    114.67   
    13. A(H   1,C   0,H   3)          110.05 -0.023465    4.61    114.67   
    ----------------------------------------------------------------------------

         *************************************************************
         *                GEOMETRY OPTIMIZATION CYCLE   2            *
         *************************************************************
---------------------------------
CARTESIAN COORDINATES (ANGSTROEM)
---------------------------------
  C     -1.584124    0.761954   -0.109326
  H     -0.796919    1.511144   -0.042836
  H     -2.266780    0.754194    0.738800
  H     -2.075891    0.715000   -1.079563
  F     -0.126727   -1.851889    0.100010

----------------------------
CARTESIAN COORDINATES (A.U.)
----------------------------
  NO LB      ZA    FRAG     MASS         X           Y           Z
   0 C     6.0000    0    12.011   -2.993560    1.439884   -0.206597
   1 H     1.0000    0     1.008   -1.505958    2.855647   -0.080948
   2 H     1.0000    0     1.008   -4.283593    1.425221    1.396130
   3 H     1.0000    0     1.008   -3.922866    1.351154   -2.040078
   4 F     9.0000    0    18.998   -0.239480   -3.499563    0.188991

--------------------------------
INTERNAL COORDINATES (ANGSTROEM)
--------------------------------
 C      0   0   0     0.000000000000     0.00000000     0.00000000
 H      1   0   0     1.088759931663     0.00000000     0.00000000
 H      1   2   0     1.088759929352   114.24710829     0.00000000
 H      1   2   3     1.088759912335   114.24710852   134.17485228
 F      1   2   3     3.000000046285   104.12461295   247.08742950

---------------------------
INTERNAL COORDINATES (A.U.)
---------------------------
 C      0   0   0     0.000000000000     0.00000000     0.00000000
 H      1   0   0     2.057458096431     0.00000000     0.00000000
 H      1   2   0     2.057458092062   114.24710829     0.00000000
 H      1   2   3     2.057458059905   114.24710852   134.17485228
 F      1   2   3     5.669178489230   104.12461295   247.08742950


Diagonalization of the overlap matrix:
Smallest eigenvalue                        ... 1.228e-04
Time for diagonalization                   ...    0.004 sec
Threshold for overlap eigenvalues          ... 1.000e-08
Number of eigenvalues below threshold      ... 0
Time for construction of square roots      ...    0.002 sec
Total time needed                          ...    0.006 sec

--------------
SCF ITERATIONS
--------------
ITER       Energy         Delta-E        Max-DP      RMS-DP      [F,P]     Damp
               ***  Starting incremental Fock matrix formation  ***
  0   -138.8633961937   0.000000000000 0.00105040  0.00001264  0.0312005 0.9200
  1   -138.8635211018  -0.000124908134 0.00107536  0.00001323  0.0292068 0.9200
                               ***Turning on DIIS***
  2   -138.8636423158  -0.000121213950 0.00100227  0.00001252  0.0271388 0.9200
  3   -138.8634122302   0.000230085603 0.00093553  0.00001187  0.0251871 0.9200
  4   -138.8626069539   0.000805276229 0.00088141  0.00001149  0.0233662 0.9200
  5   -138.8619128525   0.000694101470 0.00082556  0.00001114  0.0216587 0.9200
  6   -138.8615487253   0.000364127164 0.00076465  0.00001068  0.0200535 0.9200
  7   -138.8615492142  -0.000000488936 0.00069659  0.00000998  0.0185480 0.9200
  8   -138.8614144615   0.000134752723 0.00063467  0.00000930  0.0171464 0.9200
  9   -138.8612161522   0.000198309325 0.00057859  0.00000865  0.0158449 0.9200
 10   -138.8610933909   0.000122761327 0.00052798  0.00000804  0.0146384 0.9200
 11   -138.8611077390  -0.000014348124 0.00048227  0.00000747  0.0135215 0.9200
 12   -138.8612318349  -0.000124095935 0.00044081  0.00000694  0.0124887 0.9200
 13   -138.8613901706  -0.000158335718 0.00040310  0.00000645  0.0115341 0.9200
 14   -138.8615428144  -0.000152643788 0.00036871  0.00000599  0.0106523 0.9200
 15   -138.8616866623  -0.000143847908 0.00033878  0.00000556  0.0098378 0.9200
 16   -138.8618317651  -0.000145102789 0.00031155  0.00000517  0.0090856 0.9200
 17   -138.8619836233  -0.000151858189 0.00028651  0.00000481  0.0083910 0.9200
 18   -138.8621391886  -0.000155565292 0.00026349  0.00000447  0.0077496 0.9200
 19   -138.8622930120  -0.000153823413 0.00024231  0.00000415  0.0071574 0.9200
               *** Restarting incremental Fock matrix formation ***
                                   *** Resetting DIIS ***
 20   -138.8648662559  -0.002573243882 0.00021986  0.00000328  0.0066106 0.9200
 21   -138.8645404545   0.000325801368 0.00020500  0.00000303  0.0061365 0.9200
 22   -138.8639585674   0.000581887171 0.00018944  0.00000294  0.0057019 0.9200
 23   -138.8636706585   0.000287908838 0.00017589  0.00000290  0.0052935 0.9200
 24   -138.8636078492   0.000062809286 0.00016525  0.00000283  0.0049071 0.9200
 25   -138.8638332738  -0.000225424609 0.00015187  0.00000268  0.0045429 0.9200
 26   -138.8637797059   0.000053567946 0.00013913  0.00000253  0.0042034 0.9200
 27   -138.8636393449   0.000140360970 0.00012735  0.00000239  0.0038879 0.9200
 28   -138.8635563236   0.000083021364 0.00011658  0.00000224  0.0035979 0.9200
 29   -138.8635646762  -0.000008352605 0.00010676  0.00000211  0.0033285 0.9200
 30   -138.8636332777  -0.000068601556 0.00009780  0.00000198  0.0030789 0.9200
 31   -138.8637058762  -0.000072598450 0.00112012  0.00002320  0.0028477 0.0000
 32   -138.8652184332  -0.001512557060 0.00008457  0.00000279  0.0004048 0.0000
 33   -138.8653085339  -0.000090100650 0.00006780  0.00000222  0.0002912 0.0000
 34   -138.8649131895   0.000395344363 0.00005550  0.00000192  0.0002302 0.0000
 35   -138.8649103298   0.000002859675 0.00004103  0.00000133  0.0001708 0.0000
 36   -138.8649920855  -0.000081755621 0.00002834  0.00000105  0.0001023 0.0000
 37   -138.8650329791  -0.000040893644 0.00001706  0.00000057  0.0000706 0.0000
 38   -138.8651665314  -0.000133552283 0.00000976  0.00000032  0.0000378 0.0000
 39   -138.8652313890  -0.000064857645 0.00000512  0.00000016  0.0000252 0.0000
               *** Restarting incremental Fock matrix formation ***
                                   *** Resetting DIIS ***
 40   -138.8653330529  -0.000101663845 0.00000158  0.00000006  0.0000125 0.0000
 41   -138.8653494147  -0.000016361780 0.00000109  0.00000003  0.0000111 0.0000
 42   -138.8653347863   0.000014628354 0.00000074  0.00000002  0.0000024 0.0000
 43   -138.8653300703   0.000004716043 0.00000045  0.00000001  0.0000016 0.0000
 44   -138.8653289179   0.000001152370 0.00000027  0.00000001  0.0000012 0.0000
                            ***DIIS convergence achieved***

               *****************************************************
               *                     SUCCESS                       *
               *           SCF CONVERGED AFTER  45 CYCLES          *
               *****************************************************

Total Energy       :         -138.86533020 Eh           -3778.71774 eV
  Last Energy change         ...   -1.2817e-06  Tolerance :   1.0000e-08
  Last MAX-Density change    ...    2.1926e-07  Tolerance :   1.0000e-07
             **** THE GBW FILE WAS UPDATED (orca.gbw) ****
             **** DENSITY FILE WAS UPDATED (orca.scfp) ****
             **** ENERGY FILE WAS UPDATED (orca.en.tmp) ****
----------------------
UHF SPIN CONTAMINATION
----------------------

Expectation value of <S**2>     :     0.000000
Ideal value S*(S+1) for S=0.0   :     0.000000
Deviation                       :     0.000000

             **** THE GBW FILE WAS UPDATED (orca.gbw) ****
             **** DENSITY FILE WAS UPDATED (orca.scfp) ****
Total SCF time: 0 days 0 hours 2 min 0 sec 

-------------------------   --------------------
FINAL SINGLE POINT ENERGY      -138.865330199610
-------------------------   --------------------

------------------------------------------------------------------------------
                         ORCA SCF GRADIENT CALCULATION
------------------------------------------------------------------------------

Gradient of the Hartree-Fock SCF energy:
Hartree-Fock type                ... UHF
Number of operators              ...    2
Number of atoms                  ...    5
Basis set dimensions             ...  161
Integral neglect threshold       ... 2.5e-11
Integral primitive cutoff        ... 2.5e-12

Nuclear repulsion gradient       ... done
One Electron Gradient            ... done
Pre-screening matrix             ... done
Starting the two electron gradient:
Two electron gradient done

------------------
CARTESIAN GRADIENT
------------------

   1   C   :    0.023733575   -0.042566209    0.003409009
   2   H   :   -0.012572786    0.027938345   -0.001922079
   3   H   :   -0.016238208    0.026050725    0.000027102
   4   H   :   -0.015762181    0.025952986   -0.004507374
   5   F   :    0.020839601   -0.037375845    0.002993342

Difference to translation invariance:
           :   -0.0000000000    0.0000000000   -0.0000000000

Norm of the cartesian gradient     ...    0.0839877967
RMS gradient                       ...    0.0216855559
MAX gradient                       ...    0.0425662092

-------
TIMINGS
-------

Total SCF gradient time            ...       12.293 sec

One electron gradient       ....       0.033 sec  (  0.3%)
Prescreening matrices       ....       0.179 sec  (  1.5%)
Two electron gradient       ....      11.939 sec  ( 97.1%)
------------------------------------------------------------------------------
                         ORCA GEOMETRY RELAXATION STEP
------------------------------------------------------------------------------

Reading the OPT-File                    .... done
Getting information on internals        .... done
Copying old internal coords+grads       .... done
Making the new internal coordinates     .... (new redundants).... done
Validating the new internal coordinates .... (new redundants).... done
Calculating the B-matrix                .... done
Calculating the G,G- and P matrices     .... done
Transforming gradient to internals      .... done
Projecting the internal gradient        .... done
Number of atoms                         ....   5
Number of internal coordinates          ....  13
Current Energy                          ....  -138.865330200 Eh
Current gradient norm                   ....     0.083987797 Eh/bohr
Maximum allowed component of the step   ....  0.300
Current trust radius                    ....  0.300
Updating the Hessian (BFGS)             .... done
Forming the augmented Hessian           .... done
Diagonalizing the augmented Hessian     .... done
Last element of RFO vector              ....  0.851915335
Lowest eigenvalues of augmented Hessian:
 -0.029262575  0.040216166  0.040216167  0.076988427  0.293923086
Length of the computed step             ....  0.614708435
Warning: the length of the step is outside the trust region - taking restricted step instead
The input lambda is                     ....    -0.029263
   iter:   1  x=   -0.058668  g=    9.789574 f(x)=     0.287866
   iter:   2  x=   -0.087783  g=    3.716110 f(x)=     0.108194
   iter:   3  x=   -0.105737  g=    1.800732 f(x)=     0.032330
   iter:   4  x=   -0.110126  g=    1.240494 f(x)=     0.005445
   iter:   5  x=   -0.110323  g=    1.140014 f(x)=     0.000225
   iter:   6  x=   -0.110323  g=    1.135762 f(x)=     0.000000
   iter:   7  x=   -0.110323  g=    1.135754 f(x)=     0.000000
   iter:   8  x=   -0.110323  g=    1.135754 f(x)=    -0.000000
The output lambda is                    ....    -0.110323 (8 iterations)
The final length of the internal step   ....  0.300000000
Converting the step to cartesian space:
 Initial RMS(Int)=    0.0832050294
Transforming coordinates:
 Iter   0:  RMS(Cart)=    0.0474616000 RMS(Int)=    0.0814384221
 Iter   1:  RMS(Cart)=    0.0023736766 RMS(Int)=    0.0033948810
 Iter   2:  RMS(Cart)=    0.0001654804 RMS(Int)=    0.0001845731
 Iter   3:  RMS(Cart)=    0.0000056415 RMS(Int)=    0.0000075099
 Iter   4:  RMS(Cart)=    0.0000006322 RMS(Int)=    0.0000009306
 Iter   5:  RMS(Cart)=    0.0000000494 RMS(Int)=    0.0000000566
Imposing constraints:
 Iter   0:  RMS(Cart)=    0.0010055127 RMS(Int)=    0.0045222796
 Iter   1:  RMS(Cart)=    0.0004635878 RMS(Int)=    0.0020849797
 Iter   2:  RMS(Cart)=    0.0002137354 RMS(Int)=    0.0009612719
 Iter   3:  RMS(Cart)=    0.0000985419 RMS(Int)=    0.0004431907
 Iter   4:  RMS(Cart)=    0.0000454324 RMS(Int)=    0.0002043314
 Iter   5:  RMS(Cart)=    0.0000209464 RMS(Int)=    0.0000942062
 Iter   6:  RMS(Cart)=    0.0000096573 RMS(Int)=    0.0000434334
 Iter   7:  RMS(Cart)=    0.0000044524 RMS(Int)=    0.0000200248
 Iter   8:  RMS(Cart)=    0.0000020528 RMS(Int)=    0.0000092324
 Iter   9:  RMS(Cart)=    0.0000009464 RMS(Int)=    0.0000042565
 Iter  10:  RMS(Cart)=    0.0000004363 RMS(Int)=    0.0000019625
 Iter  11:  RMS(Cart)=    0.0000002012 RMS(Int)=    0.0000009048
 Iter  12:  RMS(Cart)=    0.0000000928 RMS(Int)=    0.0000004171
 Iter  13:  RMS(Cart)=    0.0000000428 RMS(Int)=    0.0000001923
 Iter  14:  RMS(Cart)=    0.0000000197 RMS(Int)=    0.0000000887
CONVERGED
done
Storing new coordinates                 .... done

                                .--------------------.
          ----------------------|Geometry convergence|-------------------------
          Item                value                   Tolerance       Converged
          ---------------------------------------------------------------------
          Energy change      -0.0172085179            0.0000050000      NO
          RMS gradient        0.0133302651            0.0001000000      NO
          MAX gradient        0.0220893259            0.0003000000      NO
          RMS step            0.0832050294            0.0020000000      NO
          MAX step            0.1381349306            0.0040000000      NO
          ........................................................
          Max(Bonds)      0.0731      Max(Angles)    4.47
          Max(Dihed)        0.00      Max(Improp)    0.00
          ---------------------------------------------------------------------

The optimization has not yet converged - more geometry cycles are needed


    ---------------------------------------------------------------------------
                         Redundant Internal Coordinates
                            (Angstroem and degrees)

        Definition                    Value    dE/dq     Step     New-Value
    ----------------------------------------------------------------------------
     1. B(H   1,C   0)                1.0888  0.000025 -0.0047    1.0841   
     2. B(H   2,C   0)                1.0888  0.000025 -0.0047    1.0841   
     3. B(H   3,C   0)                1.0888  0.000025 -0.0047    1.0841   
     4. B(F   4,H   3)                3.4321  0.018834 -0.0731    3.3590   
     5. B(F   4,H   1)                3.4321  0.018834 -0.0731    3.3590   
     6. B(F   4,C   0)                3.0000 -0.010864  0.0000    3.0000 C 
     7. B(F   4,H   2)                3.4321  0.018834 -0.0731    3.3590   
     8. A(H   2,C   0,H   3)          114.25 -0.013018    3.95    118.20   
     9. A(H   1,C   0,F   4)          104.12  0.016718   -4.47     99.65   
    10. A(H   2,C   0,F   4)          104.12  0.016718   -4.47     99.65   
    11. A(H   3,C   0,F   4)          104.12  0.016718   -4.47     99.65   
    12. A(H   1,C   0,H   2)          114.25 -0.013018    3.95    118.20   
    13. A(H   1,C   0,H   3)          114.25 -0.013018    3.95    118.20   
    ----------------------------------------------------------------------------

         *************************************************************
         *                GEOMETRY OPTIMIZATION CYCLE   3            *
         *************************************************************
---------------------------------
CARTESIAN COORDINATES (ANGSTROEM)
---------------------------------
  C     -1.609001    0.806571   -0.112900
  H     -0.767632    1.488575   -0.039275
  H     -2.257869    0.721133    0.753197
  H     -2.064335    0.681394   -1.090374
  F     -0.151605   -1.807271    0.096437

----------------------------
CARTESIAN COORDINATES (A.U.)
----------------------------
  NO LB      ZA    FRAG     MASS         X           Y           Z
   0 C     6.0000    0    12.011   -3.040572    1.524199   -0.213350
   1 H     1.0000    0     1.008   -1.450613    2.813000   -0.074219
   2 H     1.0000    0     1.008   -4.266755    1.362743    1.423336
   3 H     1.0000    0     1.008   -3.901027    1.287649   -2.060508
   4 F     9.0000    0    18.998   -0.286491   -3.415248    0.182239

--------------------------------
INTERNAL COORDINATES (ANGSTROEM)
--------------------------------
 C      0   0   0     0.000000000000     0.00000000     0.00000000
 H      1   0   0     1.085565843338     0.00000000     0.00000000
 H      1   2   0     1.085565844075   117.29694123     0.00000000
 H      1   2   3     1.085565856145   117.29694052   147.89444346
 F      1   2   3     3.000000045989    99.56278351   253.94722244

---------------------------
INTERNAL COORDINATES (A.U.)
---------------------------
 C      0   0   0     0.000000000000     0.00000000     0.00000000
 H      1   0   0     2.051422144247     0.00000000     0.00000000
 H      1   2   0     2.051422145641   117.29694123     0.00000000
 H      1   2   3     2.051422168449   117.29694052   147.89444346
 F      1   2   3     5.669178488671    99.56278351   253.94722244


Diagonalization of the overlap matrix:
Smallest eigenvalue                        ... 1.126e-04
Time for diagonalization                   ...    0.004 sec
Threshold for overlap eigenvalues          ... 1.000e-08
Number of eigenvalues below threshold      ... 0
Time for construction of square roots      ...    0.002 sec
Total time needed                          ...    0.005 sec

--------------
SCF ITERATIONS
--------------
ITER       Energy         Delta-E        Max-DP      RMS-DP      [F,P]     Damp
               ***  Starting incremental Fock matrix formation  ***
  0   -138.8756989009   0.000000000000 0.00131223  0.00001628  0.0290299 0.9200
  1   -138.8758115332  -0.000112632247 0.00132970  0.00001730  0.0271628 0.9200
                               ***Turning on DIIS***
  2   -138.8759203252  -0.000108792065 0.00123917  0.00001646  0.0252439 0.9200
  3   -138.8746183866   0.001301938667 0.00115815  0.00001564  0.0234711 0.9200
  4   -138.8713554752   0.003262911366 0.00109381  0.00001516  0.0218119 0.9200
[...]
  21   0.0000       0.220222         5.9925 
  22   0.0000       0.284301         7.7362 
  23   0.0000       0.284611         7.7446 
  24   0.0000       0.284611         7.7446 
  25   0.0000       0.298165         8.1135 
  26   0.0000       0.318573         8.6688 
  27   0.0000       0.324492         8.8299 
  28   0.0000       0.324492         8.8299 
  29   0.0000       0.334556         9.1037 
  30   0.0000       0.342151         9.3104 
  31   0.0000       0.356542         9.7020 
  32   0.0000       0.356542         9.7020 
  33   0.0000       0.377535        10.2733 
  34   0.0000       0.377535        10.2733 
  35   0.0000       0.407102        11.0778 
  36   0.0000       0.407102        11.0778 
  37   0.0000       0.475666        12.9435 
  38   0.0000       0.572752        15.5854 
  39   0.0000       0.656499        17.8642 
  40   0.0000       0.656499        17.8642 
  41   0.0000       0.676478        18.4079 
  42   0.0000       0.732246        19.9254 
  43   0.0000       0.732246        19.9254 
  44   0.0000       0.772660        21.0251 
  45   0.0000       0.789409        21.4809 
  46   0.0000       0.789409        21.4809 
  47   0.0000       0.798895        21.7390 
  48   0.0000       0.865210        23.5436 
  49   0.0000       0.891028        24.2461 
  50   0.0000       0.891028        24.2461 
  51   0.0000       0.928010        25.2524 
  52   0.0000       0.928010        25.2524 
  53   0.0000       0.944623        25.7045 
  54   0.0000       0.979524        26.6542 
  55   0.0000       0.979524        26.6542 
  56   0.0000       0.999256        27.1911 
  57   0.0000       1.024986        27.8913 
  58   0.0000       1.024986        27.8913 
  59   0.0000       1.040179        28.3047 
  60   0.0000       1.040179        28.3047 
  61   0.0000       1.060940        28.8696 
  62   0.0000       1.110858        30.2280 
  63   0.0000       1.110858        30.2280 
  64   0.0000       1.198026        32.5999 
  65   0.0000       1.220295        33.2059 
  66   0.0000       1.220295        33.2059 
  67   0.0000       1.262638        34.3581 
  68   0.0000       1.318840        35.8875 
  69   0.0000       1.318840        35.8875 
  70   0.0000       1.392498        37.8918 
  71   0.0000       1.392498        37.8918 
  72   0.0000       1.459651        39.7191 
  73   0.0000       1.488980        40.5172 
  74   0.0000       1.488980        40.5172 
  75   0.0000       1.492911        40.6242 
  76   0.0000       1.534978        41.7689 
  77   0.0000       1.543919        42.0122 
  78   0.0000       1.543919        42.0122 
  79   0.0000       1.602713        43.6120 
  80   0.0000       1.755858        47.7793 
  81   0.0000       1.819318        49.5062 
  82   0.0000       1.819318        49.5062 
  83   0.0000       1.943067        52.8735 
  84   0.0000       1.948397        53.0186 
  85   0.0000       1.948397        53.0186 
  86   0.0000       2.063905        56.1617 
  87   0.0000       2.063905        56.1617 
  88   0.0000       2.088435        56.8292 
  89   0.0000       2.119355        57.6706 
  90   0.0000       2.806235        76.3615 
  91   0.0000       2.806235        76.3615 
  92   0.0000       2.888268        78.5938 
  93   0.0000       3.047815        82.9353 
  94   0.0000       3.047815        82.9353 
  95   0.0000       3.049112        82.9706 
  96   0.0000       3.090380        84.0935 
  97   0.0000       3.090380        84.0935 
  98   0.0000       3.106382        84.5289 
  99   0.0000       3.106382        84.5289 
 100   0.0000       3.127693        85.1088 
 101   0.0000       3.131715        85.2183 
 102   0.0000       3.132087        85.2284 
 103   0.0000       3.142039        85.4992 
 104   0.0000       3.142039        85.4992 
 105   0.0000       3.269692        88.9728 
 106   0.0000       3.269692        88.9728 
 107   0.0000       3.290663        89.5435 
 108   0.0000       3.421053        93.0916 
 109   0.0000       3.421053        93.0916 
 110   0.0000       3.450738        93.8993 
 111   0.0000       3.450738        93.8993 
 112   0.0000       3.515604        95.6644 
 113   0.0000       3.516672        95.6935 
 114   0.0000       3.516672        95.6935 
 115   0.0000       3.546152        96.4957 
 116   0.0000       3.619617        98.4948 
 117   0.0000       3.760598       102.3311 
 118   0.0000       3.785387       103.0056 
 119   0.0000       3.838539       104.4520 
 120   0.0000       3.838539       104.4520 
 121   0.0000       4.073633       110.8492 
 122   0.0000       4.073633       110.8492 
 123   0.0000       4.233776       115.2069 
 124   0.0000       4.233776       115.2069 
 125   0.0000       4.234680       115.2315 
 126   0.0000       4.536576       123.4465 
 127   0.0000       4.655627       126.6860 
 128   0.0000       4.655627       126.6860 
 129   0.0000       4.708147       128.1152 
 130   0.0000       4.708147       128.1152 
 131   0.0000       4.859896       132.2445 
 132   0.0000       4.887425       132.9936 
 133   0.0000       5.149652       140.1292 
 134   0.0000       5.149652       140.1292 
 135   0.0000       5.209764       141.7649 
 136   0.0000       5.209764       141.7649 
 137   0.0000       5.290379       143.9585 
 138   0.0000       5.290379       143.9585 
 139   0.0000       5.417637       147.4214 
 140   0.0000       5.480133       149.1220 
 141   0.0000       5.480133       149.1220 
 142   0.0000       5.668045       154.2354 
 143   0.0000       6.221365       169.2919 
 144   0.0000       6.325297       172.1201 
 145   0.0000       6.325297       172.1201 
 146   0.0000       6.541440       178.0016 
 147   0.0000       9.057650       246.4712 
 148   0.0000       9.057650       246.4712 
 149   0.0000       9.057783       246.4748 
 150   0.0000       9.057864       246.4770 
 151   0.0000       9.069927       246.8052 
 152   0.0000       9.069927       246.8052 
 153   0.0000       9.097564       247.5573 
 154   0.0000       9.543569       259.6937 
 155   0.0000       9.543569       259.6937 
 156   0.0000       9.591227       260.9906 
 157   0.0000       9.591227       260.9906 
 158   0.0000       9.662491       262.9298 
 159   0.0000      11.240576       305.8716 
 160   0.0000      16.550203       450.3539 

                    ********************************
                    * MULLIKEN POPULATION ANALYSIS *
                    ********************************

--------------------------------------------
MULLIKEN ATOMIC CHARGES AND SPIN POPULATIONS
--------------------------------------------
   0 C :   -0.857308    0.000000
   1 H :    0.567152    0.000000
   2 H :    0.567152    0.000000
   3 H :    0.567152    0.000000
   4 F :   -0.844148    0.000000
Sum of atomic charges         :   -0.0000000
Sum of atomic spin populations:    0.0000000

-----------------------------------------------------
MULLIKEN REDUCED ORBITAL CHARGES AND SPIN POPULATIONS
-----------------------------------------------------
CHARGE
  0 C s       :     3.755583  s :     3.755583
      pz      :     1.414683  p :     2.969144
      px      :     1.115644
      py      :     0.438817
      dz2     :     0.039981  d :     0.122452
      dxz     :     0.041513
      dyz     :     0.008392
      dx2y2   :     0.007933
      dxy     :     0.024633
      f0      :     0.000896  f :     0.010129
      f+1     :     0.004006
      f-1     :     0.001332
      f+2     :     0.000728
      f-2     :     0.000638
      f+3     :     0.000442
      f-3     :     0.002086
  1 H s       :     0.383083  s :     0.383083
      pz      :     0.021664  p :     0.042642
      px      :     0.013837
      py      :     0.007141
      dz2     :     0.000080  d :     0.007123
      dxz     :     0.004561
      dyz     :     0.000863
      dx2y2   :     0.001368
      dxy     :     0.000251
  2 H s       :     0.383083  s :     0.383083
      pz      :     0.019053  p :     0.042642
      px      :     0.016656
      py      :     0.006933
      dz2     :     0.004145  d :     0.007123
      dxz     :     0.000474
      dyz     :     0.000591
      dx2y2   :     0.000209
      dxy     :     0.001704
  3 H s       :     0.383083  s :     0.383083
      pz      :     0.018705  p :     0.042642
      px      :     0.017121
      py      :     0.006816
      dz2     :     0.002818  d :     0.007123
      dxz     :     0.001935
      dyz     :     0.000978
      dx2y2   :     0.000028
      dxy     :     0.001364
  4 F s       :     4.001841  s :     4.001841
      pz      :     1.994147  p :     5.840865
      px      :     1.960939
      py      :     1.885778
      dz2     :     0.000259  d :     0.001406
      dxz     :     0.000043
      dyz     :     0.000145
      dx2y2   :     0.000344
      dxy     :     0.000615
      f0      :     0.000002  f :     0.000036
      f+1     :     0.000002
      f-1     :     0.000007
      f+2     :     0.000001
      f-2     :     0.000003
      f+3     :     0.000016
      f-3     :     0.000005

SPIN
  0 C s       :     0.000000  s :     0.000000
      pz      :     0.000000  p :     0.000000
      px      :     0.000000
      py      :     0.000000
      dz2     :     0.000000  d :     0.000000
      dxz     :     0.000000
      dyz     :     0.000000
      dx2y2   :     0.000000
      dxy     :     0.000000
      f0      :     0.000000  f :     0.000000
      f+1     :     0.000000
      f-1     :     0.000000
      f+2     :     0.000000
      f-2     :     0.000000
      f+3     :     0.000000
      f-3     :     0.000000
  1 H s       :     0.000000  s :     0.000000
      pz      :     0.000000  p :     0.000000
      px      :     0.000000
      py      :     0.000000
      dz2     :     0.000000  d :     0.000000
      dxz     :     0.000000
      dyz     :     0.000000
      dx2y2   :     0.000000
      dxy     :     0.000000
  2 H s       :     0.000000  s :     0.000000
      pz      :     0.000000  p :     0.000000
      px      :     0.000000
      py      :     0.000000
      dz2     :     0.000000  d :     0.000000
      dxz     :     0.000000
      dyz     :     0.000000
      dx2y2   :     0.000000
      dxy     :     0.000000
  3 H s       :     0.000000  s :     0.000000
      pz      :     0.000000  p :     0.000000
      px      :     0.000000
      py      :     0.000000
      dz2     :     0.000000  d :     0.000000
      dxz     :     0.000000
      dyz     :     0.000000
      dx2y2   :     0.000000
      dxy     :     0.000000
  4 F s       :     0.000000  s :     0.000000
      pz      :     0.000000  p :     0.000000
      px      :     0.000000
      py      :     0.000000
      dz2     :     0.000000  d :     0.000000
      dxz     :     0.000000
      dyz     :     0.000000
      dx2y2   :     0.000000
      dxy     :     0.000000
      f0      :     0.000000  f :     0.000000
      f+1     :     0.000000
      f-1     :     0.000000
      f+2     :     0.000000
      f-2     :     0.000000
      f+3     :     0.000000
      f-3     :     0.000000


                     *******************************
                     * LOEWDIN POPULATION ANALYSIS *
                     *******************************

-------------------------------------------
LOEWDIN ATOMIC CHARGES AND SPIN POPULATIONS
-------------------------------------------
   0 C :    1.192774    0.000000
   1 H :   -0.146124    0.000000
   2 H :   -0.146124    0.000000
   3 H :   -0.146124    0.000000
   4 F :   -0.754402    0.000000

----------------------------------------------------
LOEWDIN REDUCED ORBITAL CHARGES AND SPIN POPULATIONS
----------------------------------------------------
CHARGE
  0 C s       :     2.610380  s :     2.610380
      pz      :     0.929934  p :     1.955750
      px      :     0.734301
      py      :     0.291515
      dz2     :     0.065591  d :     0.207361
      dxz     :     0.058995
      dyz     :     0.017892
      dx2y2   :     0.018771
      dxy     :     0.046112
      f0      :     0.003250  f :     0.033736
      f+1     :     0.010014
      f-1     :     0.004610
      f+2     :     0.001966
      f-2     :     0.003234
      f+3     :     0.002783
      f-3     :     0.007880
  1 H s       :     0.682824  s :     0.682824
      pz      :     0.083786  p :     0.289968
      px      :     0.147211
      py      :     0.058972
      dz2     :     0.013026  d :     0.173331
      dxz     :     0.070416
      dyz     :     0.021524
      dx2y2   :     0.025550
      dxy     :     0.042816
  2 H s       :     0.682824  s :     0.682824
      pz      :     0.150139  p :     0.289968
      px      :     0.094617
      py      :     0.045212
      dz2     :     0.082623  d :     0.173331
      dxz     :     0.041745
      dyz     :     0.014346
      dx2y2   :     0.010578
      dxy     :     0.024040
  3 H s       :     0.682824  s :     0.682824
      pz      :     0.162898  p :     0.289968
      px      :     0.079804
      py      :     0.047266
      dz2     :     0.079576  d :     0.173331
      dxz     :     0.049001
      dyz     :     0.022689
      dx2y2   :     0.003391
      dxy     :     0.018674
  4 F s       :     3.962725  s :     3.962725
      pz      :     1.987576  p :     5.790966
      px      :     1.947288
      py      :     1.856102
      dz2     :     0.000118  d :     0.000695
      dxz     :     0.000026
      dyz     :     0.000087
      dx2y2   :     0.000176
      dxy     :     0.000287
      f0      :     0.000001  f :     0.000016
      f+1     :     0.000001
      f-1     :     0.000003
      f+2     :     0.000001
      f-2     :     0.000001
      f+3     :     0.000006
      f-3     :     0.000003

SPIN
  0 C s       :     0.000000  s :     0.000000
      pz      :     0.000000  p :     0.000000
      px      :     0.000000
      py      :     0.000000
      dz2     :     0.000000  d :     0.000000
      dxz     :     0.000000
      dyz     :     0.000000
      dx2y2   :     0.000000
      dxy     :     0.000000
      f0      :     0.000000  f :     0.000000
      f+1     :     0.000000
      f-1     :     0.000000
      f+2     :     0.000000
      f-2     :     0.000000
      f+3     :     0.000000
      f-3     :     0.000000
  1 H s       :     0.000000  s :     0.000000
      pz      :     0.000000  p :     0.000000
      px      :     0.000000
      py      :     0.000000
      dz2     :     0.000000  d :     0.000000
      dxz     :     0.000000
      dyz     :     0.000000
      dx2y2   :     0.000000
      dxy     :     0.000000
  2 H s       :     0.000000  s :     0.000000
      pz      :     0.000000  p :     0.000000
      px      :     0.000000
      py      :     0.000000
      dz2     :     0.000000  d :     0.000000
      dxz     :     0.000000
      dyz     :     0.000000
      dx2y2   :     0.000000
      dxy     :     0.000000
  3 H s       :     0.000000  s :     0.000000
      pz      :     0.000000  p :     0.000000
      px      :     0.000000
      py      :     0.000000
      dz2     :     0.000000  d :     0.000000
      dxz     :     0.000000
      dyz     :     0.000000
      dx2y2   :     0.000000
      dxy     :     0.000000
  4 F s       :     0.000000  s :     0.000000
      pz      :     0.000000  p :     0.000000
      px      :     0.000000
      py      :     0.000000
      dz2     :     0.000000  d :     0.000000
      dxz     :     0.000000
      dyz     :     0.000000
      dx2y2   :     0.000000
      dxy     :     0.000000
      f0      :     0.000000  f :     0.000000
      f+1     :     0.000000
      f-1     :     0.000000
      f+2     :     0.000000
      f-2     :     0.000000
      f+3     :     0.000000
      f-3     :     0.000000


                      *****************************
                      * MAYER POPULATION ANALYSIS *
                      *****************************

  NA   - Mulliken gross atomic population
  ZA   - Total nuclear charge
  QA   - Mulliken gross atomic charge
  VA   - Mayer's total valence
  BVA  - Mayer's bonded valence
  FA   - Mayer's free valence

  ATOM       NA         ZA         QA         VA         BVA        FA
  0 C      6.8573     6.0000    -0.8573     2.2288     2.2288     0.0000
  1 H      0.4328     1.0000     0.5672     0.7397     0.7397     0.0000
  2 H      0.4328     1.0000     0.5672     0.7397     0.7397     0.0000
  3 H      0.4328     1.0000     0.5672     0.7397     0.7397    -0.0000
  4 F      9.8441     9.0000    -0.8441     0.2936     0.2936    -0.0000

  Mayer bond orders larger than 0.100000
B(  0-C ,  1-H ) :   0.6522 B(  0-C ,  2-H ) :   0.6522 B(  0-C ,  3-H ) :   0.6522 
B(  0-C ,  4-F ) :   0.2721 

-------
TIMINGS
-------

Total SCF time: 0 days 0 hours 0 min 17 sec 

Total time                  ....      17.849 sec
Sum of individual times     ....      17.676 sec  ( 99.0%)

Fock matrix formation       ....      17.591 sec  ( 98.6%)
Diagonalization             ....       0.058 sec  (  0.3%)
Density matrix formation    ....       0.002 sec  (  0.0%)
Population analysis         ....       0.005 sec  (  0.0%)
Initial guess               ....       0.005 sec  (  0.0%)
Orbital Transformation      ....       0.000 sec  (  0.0%)
Orbital Orthonormalization  ....       0.004 sec  (  0.0%)
DIIS solution               ....       0.015 sec  (  0.1%)

-------------------------   --------------------
FINAL SINGLE POINT ENERGY      -138.887468622002
-------------------------   --------------------

                                *** OPTIMIZATION RUN DONE ***

                            ***************************************
                            *     ORCA property calculations      *
                            ***************************************

                                    ---------------------
                                    Active property flags
                                    ---------------------
   (+) Dipole Moment


------------------------------------------------------------------------------
                       ORCA ELECTRIC PROPERTIES CALCULATION
------------------------------------------------------------------------------

Dipole Moment Calculation                       ... on
Quadrupole Moment Calculation                   ... off
Polarizability Calculation                      ... off
GBWName                                         ... orca.gbw
Electron density file                           ... orca.scfp
The origin for moment calculation is the CENTER OF MASS  = (-1.600261, -1.059001 -0.006467)

-------------
DIPOLE MOMENT
-------------
                                X             Y             Z
Electronic contribution:      0.64989      -1.16558       0.09335
Nuclear contribution   :     -2.89249       5.18769      -0.41547
                        -----------------------------------------
Total Dipole Moment    :     -2.24260       4.02211      -0.32212
                        -----------------------------------------
Magnitude (a.u.)       :      4.61632
Magnitude (Debye)      :     11.73376



--------------------
Rotational spectrum 
--------------------
 
Rotational constants in cm-1:     4.833606     0.218000     0.218000 
Rotational constants in MHz : 144907.875413  6535.488676  6535.488674 

 Dipole components along the rotational axes: 
x,y,z [a.u.] :     4.616321    -0.000000    -0.000000 
x,y,z [Debye]:    11.733756    -0.000000    -0.000000 

 

Timings for individual modules:

Sum of individual times         ...      779.423 sec (=  12.990 min)
GTO integral calculation        ...        2.320 sec (=   0.039 min)   0.3 %
SCF iterations                  ...      702.506 sec (=  11.708 min)  90.1 %
SCF Gradient evaluation         ...       73.572 sec (=   1.226 min)   9.4 %
Geometry relaxation             ...        1.025 sec (=   0.017 min)   0.1 %
                             ****ORCA TERMINATED NORMALLY****
TOTAL RUN TIME: 0 days 0 hours 12 minutes 59 seconds 668 msec
