
                                 *****************
                                 * O   R   C   A *
                                 *****************

           --- An Ab Initio, DFT and Semiempirical electronic structure package ---

                  #######################################################
                  #                        -***-                        #
                  #          Department of theory and spectroscopy      #
                  #               Directorship: Frank Neese             #
                  #        Max Planck Institute fuer Kohlenforschung    #
                  #                Kaiser Wilhelm Platz 1               #
                  #                 D-45470 Muelheim/Ruhr               #
                  #                      Germany                        #
                  #                                                     #
                  #                  All rights reserved                #
                  #                        -***-                        #
                  #######################################################


                         Program Version 4.2.1 -  RELEASE  -


 With contributions from (in alphabetic order):
   Daniel Aravena         : Magnetic Suceptibility
   Michael Atanasov       : Ab Initio Ligand Field Theory (pilot matlab implementation)
   Alexander A. Auer      : GIAO ZORA, VPT2
   Ute Becker             : Parallelization
   Giovanni Bistoni       : ED, misc. LED, open-shell LED, HFLD
   Martin Brehm           : Molecular dynamics
   Dmytro Bykov           : SCF Hessian
   Vijay G. Chilkuri      : MRCI spin determinant printing, contributions to CSF-ICE
   Dipayan Datta          : RHF DLPNO-CCSD density
   Achintya Kumar Dutta   : EOM-CC, STEOM-CC
   Dmitry Ganyushin       : Spin-Orbit,Spin-Spin,Magnetic field MRCI
   Miquel Garcia          : C-PCM Hessian, Gaussian charge scheme
   Yang Guo               : DLPNO-NEVPT2, CIM, IAO-localization
   Andreas Hansen         : Spin unrestricted coupled pair/coupled cluster methods
   Benjamin Helmich-Paris : CASSCF linear response (MC-RPA)
   Lee Huntington         : MR-EOM, pCC
   Robert Izsak           : Overlap fitted RIJCOSX, COSX-SCS-MP3, EOM
   Christian Kollmar      : KDIIS, OOCD, Brueckner-CCSD(T), CCSD density
   Simone Kossmann        : Meta GGA functionals, TD-DFT gradient, OOMP2, MP2 Hessian
   Martin Krupicka        : AUTO-CI
   Lucas Lang             : DCDCAS
   Dagmar Lenk            : GEPOL surface, SMD
   Dimitrios Liakos       : Extrapolation schemes; Compound Job, initial MDCI parallelization
   Dimitrios Manganas     : Further ROCIS development; embedding schemes
   Dimitrios Pantazis     : SARC Basis sets
   Taras Petrenko         : DFT Hessian,TD-DFT gradient, ASA, ECA, R-Raman, ABS, FL, XAS/XES, NRVS
   Peter Pinski           : DLPNO-MP2, DLPNO-MP2 Gradient
   Christoph Reimann      : Effective Core Potentials
   Marius Retegan         : Local ZFS, SOC
   Christoph Riplinger    : Optimizer, TS searches, QM/MM, DLPNO-CCSD(T), (RO)-DLPNO pert. Triples
   Tobias Risthaus        : Range-separated hybrids, TD-DFT gradient, RPA, STAB
   Michael Roemelt        : Original ROCIS implementation
   Masaaki Saitow         : Open-shell DLPNO-CCSD energy and density
   Barbara Sandhoefer     : DKH picture change effects
   Avijit Sen             : IP-ROCIS
   Kantharuban Sivalingam : CASSCF convergence, NEVPT2, FIC-MRCI
   Bernardo de Souza      : ESD, SOC TD-DFT
   Georgi Stoychev        : AutoAux, RI-MP2 NMR
   Willem Van den Heuvel  : Paramagnetic NMR
   Boris Wezisla          : Elementary symmetry handling
   Frank Wennmohs         : Technical directorship


 We gratefully acknowledge several colleagues who have allowed us to
 interface, adapt or use parts of their codes:
   Stefan Grimme, W. Hujo, H. Kruse,             : VdW corrections, initial TS optimization,
                  C. Bannwarth                     DFT functionals, gCP, sTDA/sTD-DF
   Ed Valeev, F. Pavosevic, A. Kumar             : LibInt (2-el integral package), F12 methods
   Garnet Chan, S. Sharma, J. Yang, R. Olivares  : DMRG
   Ulf Ekstrom                                   : XCFun DFT Library
   Mihaly Kallay                                 : mrcc  (arbitrary order and MRCC methods)
   Andreas Klamt, Michael Diedenhofen            : otool_cosmo (COSMO solvation model)
   Jiri Pittner, Ondrej Demel                    : Mk-CCSD
   Frank Weinhold                                : gennbo (NPA and NBO analysis)
   Christopher J. Cramer and Donald G. Truhlar   : smd solvation model
   Lars Goerigk                                  : TD-DFT with DH, B97 family of functionals
   V. Asgeirsson, H. Jonsson                     : NEB implementation
   FAccTs GmbH                                   : IRC, NEB, NEB-TS, Multilevel, MM, QM/MM, CI optimization
   S Lehtola, MJT Oliveira, MAL Marques          : LibXC Library


 Your calculation uses the libint2 library for the computation of 2-el integrals
 For citations please refer to: http://libint.valeyev.net

 Your ORCA version has been built with support for libXC version: 4.2.3
 For citations please refer to: https://tddft.org/programs/libxc/

 This ORCA versions uses:
   CBLAS   interface :  Fast vector & matrix operations
   LAPACKE interface :  Fast linear algebra routines
   SCALAPACK package :  Parallel linear algebra routines


----- Orbital basis set information -----
Your calculation utilizes the basis: 6-31G
   H-He, Li-Ne : W. J. Hehre, R. Ditchfield and J.A. Pople, J. Chem. Phys. 56, 2257 (1972).
                 Note: He and Ne are unpublished basis sets taken from the Gaussian program.
                 Note: Li and B from J. D. Dill and J. A. Pople, J. Chem. Phys. 62, 2921 (1975).
   Na - Ar     : M. M. Francl, W. J. Pietro, W. J. Hehre, J. S. Binkley, M. S. Gordon, 
                 D. J. DeFrees and J. A. Pople, J. Chem. Phys. 77, 3654 (1982).
   K - Zn      : V. A. Rassolov, J. A. Pople, M. A. Ratner, and T. L. Windus, J. Chem. Phys. 109, 1223 (1998).

================================================================================
                                        WARNINGS
                       Please study these warnings very carefully!
================================================================================


WARNING: your system is open-shell and RHF/RKS was chosen
  ===> : WILL SWITCH to UHF/UKS


WARNING: Geometry Optimization
  ===> : Switching off AutoStart
         For restart on a previous wavefunction, please use MOREAD

INFO   : the flag for use of LIBINT has been found!

================================================================================
                                       INPUT FILE
================================================================================
NAME = orca.inp
|  1> !RHF 6-31G OPT
|  2> *xyz 0 3
|  3> C      0.26399   -0.46477   -0.00000
|  4> H     -0.68724    0.10613    0.00000
|  5> H      1.11931    0.24176   -0.00000
|  6> **                         ****END OF INPUT****
================================================================================

                       *****************************
                       * Geometry Optimization Run *
                       *****************************

Geometry optimization settings:
Update method            Update   .... BFGS
Choice of coordinates    CoordSys .... Z-matrix Internals
Initial Hessian          InHess   .... Almoef's Model

Convergence Tolerances:
Energy Change            TolE     ....  5.0000e-06 Eh
Max. Gradient            TolMAXG  ....  3.0000e-04 Eh/bohr
RMS Gradient             TolRMSG  ....  1.0000e-04 Eh/bohr
Max. Displacement        TolMAXD  ....  4.0000e-03 bohr
RMS Displacement         TolRMSD  ....  2.0000e-03 bohr
Strict Convergence                ....  False
------------------------------------------------------------------------------
                        ORCA OPTIMIZATION COORDINATE SETUP
------------------------------------------------------------------------------

The optimization will be done in new redundant internal coordinates
Making redundant internal coordinates   ...  (new redundants) done
Evaluating the initial hessian          ...  (Almloef) done
Evaluating the coordinates              ...  done
Calculating the B-matrix                .... done
Calculating the G-matrix                .... done
Diagonalizing the G-matrix              .... done
The first mode is                       ....    0
The number of degrees of freedom        ....    3

    -----------------------------------------------------------------
                    Redundant Internal Coordinates


    -----------------------------------------------------------------
         Definition                    Initial Value    Approx d2E/dq
    -----------------------------------------------------------------
      1. B(H   1,C   0)                  1.1094         0.335331   
      2. B(H   2,C   0)                  1.1094         0.335336   
      3. A(H   1,C   0,H   2)          109.4709         0.284433   
    -----------------------------------------------------------------

Number of atoms                         .... 3
Number of degrees of freedom            .... 3

         *************************************************************
         *                GEOMETRY OPTIMIZATION CYCLE   1            *
         *************************************************************
---------------------------------
CARTESIAN COORDINATES (ANGSTROEM)
---------------------------------
  C      0.263990   -0.464770   -0.000000
  H     -0.687240    0.106130    0.000000
  H      1.119310    0.241760   -0.000000

----------------------------
CARTESIAN COORDINATES (A.U.)
----------------------------
  NO LB      ZA    FRAG     MASS         X           Y           Z
   0 C     6.0000    0    12.011    0.498869   -0.878288   -0.000000
   1 H     1.0000    0     1.008   -1.298695    0.200557    0.000000
   2 H     1.0000    0     1.008    2.115189    0.456860   -0.000000

--------------------------------
INTERNAL COORDINATES (ANGSTROEM)
--------------------------------
 C      0   0   0     0.000000000000     0.00000000     0.00000000
 H      1   0   0     1.109398631196     0.00000000     0.00000000
 H      1   2   0     1.109394854549   109.47094193     0.00000000

---------------------------
INTERNAL COORDINATES (A.U.)
---------------------------
 C      0   0   0     0.000000000000     0.00000000     0.00000000
 H      1   0   0     2.096459586308     0.00000000     0.00000000
 H      1   2   0     2.096452449479   109.47094193     0.00000000

---------------------
BASIS SET INFORMATION
---------------------
There are 2 groups of distinct atoms

 Group   1 Type C   : 10s4p contracted to 3s2p pattern {631/31}
 Group   2 Type H   : 4s contracted to 2s pattern {31}

Atom   0C    basis set group =>   1
Atom   1H    basis set group =>   2
Atom   2H    basis set group =>   2
------------------------------------------------------------------------------
                           ORCA GTO INTEGRAL CALCULATION
------------------------------------------------------------------------------

                         BASIS SET STATISTICS AND STARTUP INFO

 # of primitive gaussian shells          ...   22
 # of primitive gaussian functions       ...   30
 # of contracted shells                  ...    9
 # of contracted basis functions         ...   13
 Highest angular momentum                ...    1
 Maximum contraction depth               ...    6
 Integral package used                   ... LIBINT
 Integral threshhold            Thresh   ...  2.500e-11
 Primitive cut-off              TCut     ...  2.500e-12


------------------------------ INTEGRAL EVALUATION ----------------------------


 * One electron integrals 
 Pre-screening matrix                    ... done
 Shell pair data                         ... done (   0.000 sec)

-------------------------------------------------------------------------------
                                 ORCA SCF
-------------------------------------------------------------------------------

------------
SCF SETTINGS
------------
Hamiltonian:
 Ab initio Hamiltonian  Method          .... Hartree-Fock(GTOs)


General Settings:
 Integral files         IntName         .... orca
 Hartree-Fock type      HFTyp           .... UHF
 Total Charge           Charge          ....    0
 Multiplicity           Mult            ....    3
 Number of Electrons    NEL             ....    8
 Basis Dimension        Dim             ....   13
 Nuclear Repulsion      ENuc            ....      6.0160448782 Eh

Convergence Acceleration:
 DIIS                   CNVDIIS         .... on
   Start iteration      DIISMaxIt       ....    12
   Startup error        DIISStart       ....  0.200000
   # of expansion vecs  DIISMaxEq       ....     5
   Bias factor          DIISBfac        ....   1.050
   Max. coefficient     DIISMaxC        ....  10.000
 Newton-Raphson         CNVNR           .... off
 SOSCF                  CNVSOSCF        .... off
 Level Shifting         CNVShift        .... on
   Level shift para.    LevelShift      ....    0.2500
   Turn off err/grad.   ShiftErr        ....    0.0010
 Zerner damping         CNVZerner       .... off
 Static damping         CNVDamp         .... on
   Fraction old density DampFac         ....    0.7000
   Max. Damping (<1)    DampMax         ....    0.9800
   Min. Damping (>=0)   DampMin         ....    0.0000
   Turn off err/grad.   DampErr         ....    0.1000
 Fernandez-Rico         CNVRico         .... off

SCF Procedure:
 Maximum # iterations   MaxIter         ....   125
 SCF integral mode      SCFMode         .... Direct
   Integral package                     .... LIBINT
 Reset frequency        DirectResetFreq ....    20
 Integral Threshold     Thresh          ....  2.500e-11 Eh
 Primitive CutOff       TCut            ....  2.500e-12 Eh

Convergence Tolerance:
 Convergence Check Mode ConvCheckMode   .... Total+1el-Energy
 Convergence forced     ConvForced      .... 0
 Energy Change          TolE            ....  1.000e-08 Eh
 1-El. energy change                    ....  1.000e-05 Eh
 DIIS Error             TolErr          ....  5.000e-07


Diagonalization of the overlap matrix:
Smallest eigenvalue                        ... 3.647e-02
Time for diagonalization                   ...    0.046 sec
Threshold for overlap eigenvalues          ... 1.000e-08
Number of eigenvalues below threshold      ... 0
Time for construction of square roots      ...    0.018 sec
Total time needed                          ...    0.063 sec

-------------------
DFT GRID GENERATION
-------------------

General Integration Accuracy     IntAcc      ...  4.340
Radial Grid Type                 RadialGrid  ... Gauss-Chebyshev
Angular Grid (max. acc.)         AngularGrid ... Lebedev-110
Angular grid pruning method      GridPruning ... 3 (G Style)
Weight generation scheme         WeightScheme... Becke
Basis function cutoff            BFCut       ...    1.0000e-11
Integration weight cutoff        WCut        ...    1.0000e-14
Grids for H and He will be reduced by one unit

# of grid points (after initial pruning)     ...   3244 (   0.0 sec)
# of grid points (after weights+screening)   ...   3204 (   0.0 sec)
nearest neighbour list constructed           ...    0.0 sec
Grid point re-assignment to atoms done       ...    0.0 sec
Grid point division into batches done        ...    0.0 sec
Reduced shell lists constructed in    0.0 sec

Total number of grid points                  ...     3204
Total number of batches                      ...       52
Average number of points per batch           ...       61
Average number of grid points per atom       ...     1068
Average number of shells per batch           ...     8.51 (94.55%)
Average number of basis functions per batch  ...    12.43 (95.65%)
Average number of large shells per batch     ...     8.02 (94.24%)
Average number of large basis fcns per batch ...    11.75 (94.54%)
Maximum spatial batch extension              ...  16.14, 25.60, 31.36 au
Average spatial batch extension              ...   4.98,  7.31,  6.65 au

Time for grid setup =    0.009 sec

------------------------------
INITIAL GUESS: MODEL POTENTIAL
------------------------------
Loading Hartree-Fock densities                     ... done
Calculating cut-offs                               ... done
Setting up the integral package                    ... done
Initializing the effective Hamiltonian             ... done
Starting the Coulomb interaction                   ... done (   0.0 sec)
Reading the grid                                   ... done
Mapping shells                                     ... done
Starting the XC term evaluation                    ... done (   0.0 sec)
Transforming the Hamiltonian                       ... done (   0.0 sec)
Diagonalizing the Hamiltonian                      ... done (   0.0 sec)
Back transforming the eigenvectors                 ... done (   0.0 sec)
Now organizing SCF variables                       ... done
                      ------------------
                      INITIAL GUESS DONE (   0.1 sec)
                      ------------------
--------------
SCF ITERATIONS
--------------
ITER       Energy         Delta-E        Max-DP      RMS-DP      [F,P]     Damp
               ***  Starting incremental Fock matrix formation  ***
  0    -38.8790951580   0.000000000000 0.01589256  0.00207152  0.1054886 0.7000
  1    -38.8849040313  -0.005808873355 0.01356214  0.00177718  0.0761685 0.7000
                               ***Turning on DIIS***
  2    -38.8890601277  -0.004156096318 0.03343373  0.00436170  0.0520017 0.0000
  3    -38.8996983642  -0.010638236560 0.01183010  0.00177461  0.0127197 0.0000
  4    -38.8985606378   0.001137726411 0.00728852  0.00131719  0.0086231 0.0000
  5    -38.8983956910   0.000164946862 0.00550663  0.00099708  0.0035935 0.0000
  6    -38.8998887813  -0.001493090384 0.00227695  0.00045896  0.0010770 0.0000
  7    -38.9005360920  -0.000647310652 0.00169690  0.00032610  0.0003905 0.0000
  8    -38.9009134527  -0.000377360690 0.00074273  0.00015011  0.0001173 0.0000
  9    -38.9009536105  -0.000040157828 0.00021350  0.00004000  0.0000347 0.0000
 10    -38.9009548489  -0.000001238427 0.00006462  0.00001187  0.0000150 0.0000
 11    -38.9009556459  -0.000000797005 0.00001661  0.00000294  0.0000039 0.0000
                            ***DIIS convergence achieved***

               *****************************************************
               *                     SUCCESS                       *
               *           SCF CONVERGED AFTER  12 CYCLES          *
               *****************************************************


----------------
TOTAL SCF ENERGY
----------------

Total Energy       :          -38.90095713 Eh           -1058.54886 eV

Components:
Nuclear Repulsion  :            6.01604488 Eh             163.70490 eV
Electronic Energy  :          -44.91700201 Eh           -1222.25376 eV
One Electron Energy:          -63.59422619 Eh           -1730.48687 eV
Two Electron Energy:           18.67722418 Eh             508.23311 eV

Virial components:
Potential Energy   :          -77.77839816 Eh           -2116.45781 eV
Kinetic Energy     :           38.87744103 Eh            1057.90895 eV
Virial Ratio       :            2.00060488


---------------
SCF CONVERGENCE
---------------

  Last Energy change         ...   -1.4853e-06  Tolerance :   1.0000e-08
  Last MAX-Density change    ...    2.1971e-06  Tolerance :   1.0000e-07
  Last RMS-Density change    ...    3.8343e-07  Tolerance :   5.0000e-09
  Last DIIS Error            ...    4.0759e-07  Tolerance :   5.0000e-07

             **** THE GBW FILE WAS UPDATED (orca.gbw) ****
             **** DENSITY FILE WAS UPDATED (orca.scfp) ****
             **** ENERGY FILE WAS UPDATED (orca.en.tmp) ****
----------------------
UHF SPIN CONTAMINATION
----------------------

Expectation value of <S**2>     :     2.015018
Ideal value S*(S+1) for S=1.0   :     2.000000
Deviation                       :     0.015018

             **** THE GBW FILE WAS UPDATED (orca.gbw) ****
             **** DENSITY FILE WAS UPDATED (orca.scfp) ****
----------------
ORBITAL ENERGIES
----------------
                 SPIN UP ORBITALS
  NO   OCC          E(Eh)            E(eV) 
   0   1.0000     -11.277745      -306.8830 
   1   1.0000      -0.949914       -25.8485 
   2   1.0000      -0.575265       -15.6538 
   3   1.0000      -0.488659       -13.2971 
   4   1.0000      -0.416178       -11.3248 
   5   0.0000       0.259776         7.0689 
   6   0.0000       0.300873         8.1872 
   7   0.0000       0.720986        19.6190 
   8   0.0000       0.722909        19.6714 
   9   0.0000       0.741687        20.1823 
  10   0.0000       0.951800        25.8998 
  11   0.0000       1.174608        31.9627 
  12   0.0000       1.184282        32.2260 

                 SPIN DOWN ORBITALS
  NO   OCC          E(Eh)            E(eV) 
   0   1.0000     -11.225551      -305.4628 
   1   1.0000      -0.778876       -21.1943 
   2   1.0000      -0.527590       -14.3565 
   3   0.0000       0.118485         3.2242 
   4   0.0000       0.172849         4.7035 
   5   0.0000       0.289924         7.8892 
   6   0.0000       0.349957         9.5228 
   7   0.0000       0.772582        21.0230 
   8   0.0000       0.867935        23.6177 
   9   0.0000       0.894316        24.3356 
  10   0.0000       1.015326        27.6284 
  11   0.0000       1.207930        32.8695 
  12   0.0000       1.215495        33.0753 

                    ********************************
                    * MULLIKEN POPULATION ANALYSIS *
                    ********************************

--------------------------------------------
MULLIKEN ATOMIC CHARGES AND SPIN POPULATIONS
--------------------------------------------
   0 C :   -0.277997    2.251691
   1 H :    0.138998   -0.125845
   2 H :    0.138999   -0.125846
Sum of atomic charges         :   -0.0000000
Sum of atomic spin populations:    2.0000000

-----------------------------------------------------
MULLIKEN REDUCED ORBITAL CHARGES AND SPIN POPULATIONS
-----------------------------------------------------
CHARGE
  0 C s       :     3.395084  s :     3.395084
      pz      :     1.000000  p :     2.882912
      px      :     1.003623
      py      :     0.879289
  1 H s       :     0.861002  s :     0.861002
  2 H s       :     0.861001  s :     0.861001

SPIN
  0 C s       :     0.378110  s :     0.378110
      pz      :     1.000000  p :     1.873581
      px      :     0.141208
      py      :     0.732374
  1 H s       :    -0.125845  s :    -0.125845
  2 H s       :    -0.125846  s :    -0.125846


                     *******************************
                     * LOEWDIN POPULATION ANALYSIS *
                     *******************************

-------------------------------------------
LOEWDIN ATOMIC CHARGES AND SPIN POPULATIONS
-------------------------------------------
   0 C :   -0.207167    2.125476
   1 H :    0.103584   -0.062738
   2 H :    0.103583   -0.062738

----------------------------------------------------
LOEWDIN REDUCED ORBITAL CHARGES AND SPIN POPULATIONS
----------------------------------------------------
CHARGE
  0 C s       :     3.211778  s :     3.211778
      pz      :     1.000000  p :     2.995389
      px      :     1.101762
      py      :     0.893627
  1 H s       :     0.896416  s :     0.896416
  2 H s       :     0.896417  s :     0.896417

SPIN
  0 C s       :     0.285992  s :     0.285992
      pz      :     1.000000  p :     1.839484
      px      :     0.091654
      py      :     0.747830
  1 H s       :    -0.062738  s :    -0.062738
  2 H s       :    -0.062738  s :    -0.062738


                      *****************************
                      * MAYER POPULATION ANALYSIS *
                      *****************************

  NA   - Mulliken gross atomic population
  ZA   - Total nuclear charge
  QA   - Mulliken gross atomic charge
  VA   - Mayer's total valence
  BVA  - Mayer's bonded valence
  FA   - Mayer's free valence

  ATOM       NA         ZA         QA         VA         BVA        FA
  0 C      6.2780     6.0000    -0.2780     3.8293     1.8710     1.9582
  1 H      0.8610     1.0000     0.1390     0.9453     0.9283     0.0170
  2 H      0.8610     1.0000     0.1390     0.9453     0.9283     0.0170

  Mayer bond orders larger than 0.100000
B(  0-C ,  1-H ) :   0.9355 B(  0-C ,  2-H ) :   0.9355 

-------
TIMINGS
-------

Total SCF time: 0 days 0 hours 0 min 0 sec 

Total time                  ....       0.991 sec
Sum of individual times     ....       0.786 sec  ( 79.3%)

Fock matrix formation       ....       0.677 sec  ( 68.3%)
Diagonalization             ....       0.001 sec  (  0.1%)
Density matrix formation    ....       0.000 sec  (  0.0%)
Population analysis         ....       0.001 sec  (  0.1%)
Initial guess               ....       0.097 sec  (  9.8%)
Orbital Transformation      ....       0.000 sec  (  0.0%)
Orbital Orthonormalization  ....       0.000 sec  (  0.0%)
DIIS solution               ....       0.001 sec  (  0.1%)

-------------------------   --------------------
FINAL SINGLE POINT ENERGY       -38.900957131258
-------------------------   --------------------

------------------------------------------------------------------------------
                         ORCA SCF GRADIENT CALCULATION
------------------------------------------------------------------------------

Gradient of the Hartree-Fock SCF energy:
Hartree-Fock type                ... UHF
Number of operators              ...    2
Number of atoms                  ...    3
Basis set dimensions             ...   13
Integral neglect threshold       ... 2.5e-11
Integral primitive cutoff        ... 2.5e-12

Nuclear repulsion gradient       ... done
One Electron Gradient            ... done
Pre-screening matrix             ... done
Starting the two electron gradient:
Two electron gradient done

------------------
CARTESIAN GRADIENT
------------------

   1   C   :    0.004671856   -0.062201269   -0.000000000
   2   H   :   -0.005177303    0.030887957    0.000000000
   3   H   :    0.000505447    0.031313312   -0.000000000

Difference to translation invariance:
           :    0.0000000000    0.0000000000   -0.0000000000

Norm of the cartesian gradient     ...    0.0765014609
RMS gradient                       ...    0.0255004870
MAX gradient                       ...    0.0622012695

-------
TIMINGS
-------

Total SCF gradient time            ...        0.108 sec

One electron gradient       ....       0.001 sec  (  0.5%)
Prescreening matrices       ....       0.001 sec  (  0.6%)
Two electron gradient       ....       0.004 sec  (  3.7%)
------------------------------------------------------------------------------
                         ORCA GEOMETRY RELAXATION STEP
------------------------------------------------------------------------------

Reading the OPT-File                    .... done
Getting information on internals        .... done
Copying old internal coords+grads       .... done
Making the new internal coordinates     .... (new redundants).... done
Validating the new internal coordinates .... (new redundants).... done
Calculating the B-matrix                .... done
Calculating the G,G- and P matrices     .... done
Transforming gradient to internals      .... done
Projecting the internal gradient        .... done
Number of atoms                         ....   3
Number of internal coordinates          ....   3
Current Energy                          ....   -38.900957131 Eh
Current gradient norm                   ....     0.076501461 Eh/bohr
Maximum allowed component of the step   ....  0.300
Current trust radius                    ....  0.300
Evaluating the initial hessian          ....  (Almloef) done
Projecting the Hessian                  .... done
Forming the augmented Hessian           .... done
Diagonalizing the augmented Hessian     .... done
Last element of RFO vector              ....  0.982707125
Lowest eigenvalues of augmented Hessian:
 -0.010834397  0.292433096  0.335333432
Length of the computed step             ....  0.188425108
The final length of the internal step   ....  0.188425108
Converting the step to cartesian space:
 Initial RMS(Int)=    0.1087872871
Transforming coordinates:
 Iter   0:  RMS(Cart)=    0.0549729229 RMS(Int)=    0.1085278944
 Iter   1:  RMS(Cart)=    0.0042325085 RMS(Int)=    0.0069605046
 Iter   2:  RMS(Cart)=    0.0001851877 RMS(Int)=    0.0004287431
 Iter   3:  RMS(Cart)=    0.0000318456 RMS(Int)=    0.0000496492
 Iter   4:  RMS(Cart)=    0.0000014172 RMS(Int)=    0.0000034455
 Iter   5:  RMS(Cart)=    0.0000002221 RMS(Int)=    0.0000003331
 Iter   6:  RMS(Cart)=    0.0000000123 RMS(Int)=    0.0000000278
done
Storing new coordinates                 .... done

                                .--------------------.
          ----------------------|Geometry convergence|-------------------------
          Item                value                   Tolerance       Converged
          ---------------------------------------------------------------------
          RMS gradient        0.0332697285            0.0001000000      NO
          MAX gradient        0.0499375419            0.0003000000      NO
          RMS step            0.1087872871            0.0020000000      NO
          MAX step            0.1691266314            0.0040000000      NO
          ........................................................
          Max(Bonds)      0.0311      Max(Angles)    9.69
          Max(Dihed)        0.00      Max(Improp)    0.00
          ---------------------------------------------------------------------

The optimization has not yet converged - more geometry cycles are needed


    ---------------------------------------------------------------------------
                         Redundant Internal Coordinates
                            (Angstroem and degrees)

        Definition                    Value    dE/dq     Step     New-Value
    ----------------------------------------------------------------------------
     1. B(H   1,C   0)                1.1094  0.020334 -0.0311    1.0783   
     2. B(H   2,C   0)                1.1094  0.020332 -0.0311    1.0783   
     3. A(H   1,C   0,H   2)          109.47 -0.049938    9.69    119.16   
    ----------------------------------------------------------------------------

         *************************************************************
         *                GEOMETRY OPTIMIZATION CYCLE   2            *
         *************************************************************
---------------------------------
CARTESIAN COORDINATES (ANGSTROEM)
---------------------------------
  C      0.259270   -0.401924    0.000000
  H     -0.708871    0.072905    0.000000
  H      1.145661    0.212139    0.000000

----------------------------
CARTESIAN COORDINATES (A.U.)
----------------------------
  NO LB      ZA    FRAG     MASS         X           Y           Z
   0 C     6.0000    0    12.011    0.489950   -0.759526    0.000000
   1 H     1.0000    0     1.008   -1.339573    0.137771    0.000000
   2 H     1.0000    0     1.008    2.164986    0.400884    0.000000

--------------------------------
INTERNAL COORDINATES (ANGSTROEM)
--------------------------------
 C      0   0   0     0.000000000000     0.00000000     0.00000000
 H      1   0   0     1.078314093212     0.00000000     0.00000000
 H      1   2   0     1.078314225587   119.16118394     0.00000000

---------------------------
INTERNAL COORDINATES (A.U.)
---------------------------
 C      0   0   0     0.000000000000     0.00000000     0.00000000
 H      1   0   0     2.037718322519     0.00000000     0.00000000
 H      1   2   0     2.037718572671   119.16118394     0.00000000


Diagonalization of the overlap matrix:
Smallest eigenvalue                        ... 3.688e-02
Time for diagonalization                   ...    0.000 sec
Threshold for overlap eigenvalues          ... 1.000e-08
Number of eigenvalues below threshold      ... 0
Time for construction of square roots      ...    0.000 sec
Total time needed                          ...    0.000 sec

--------------
SCF ITERATIONS
--------------
ITER       Energy         Delta-E        Max-DP      RMS-DP      [F,P]     Damp
               ***  Starting incremental Fock matrix formation  ***
  0    -38.9076526558   0.000000000000 0.00252056  0.00041380  0.0236042 0.7000
  1    -38.9079042230  -0.000251567199 0.00229264  0.00037405  0.0184492 0.7000
                               ***Turning on DIIS***
  2    -38.9081086806  -0.000204457571 0.00598292  0.00098729  0.0139099 0.0000
  3    -38.9043246810   0.003783999598 0.00273461  0.00039956  0.0038276 0.0000
  4    -38.9079368025  -0.003612121531 0.00122277  0.00018348  0.0015755 0.0000
  5    -38.9087267628  -0.000789960257 0.00090730  0.00013722  0.0007268 0.0000
  6    -38.9087867356  -0.000059972879 0.00020645  0.00002878  0.0001450 0.0000
  7    -38.9087771381   0.000009597546 0.00003278  0.00000592  0.0000262 0.0000
  8    -38.9087630680   0.000014070057 0.00000866  0.00000102  0.0000049 0.0000
  9    -38.9087646188  -0.000001550804 0.00000259  0.00000040  0.0000012 0.0000
                            ***DIIS convergence achieved***

               *****************************************************
               *                     SUCCESS                       *
               *           SCF CONVERGED AFTER  10 CYCLES          *
               *****************************************************

Total Energy       :          -38.90876390 Eh           -1058.76129 eV
  Last Energy change         ...    7.2080e-07  Tolerance :   1.0000e-08
  Last MAX-Density change    ...    1.4558e-06  Tolerance :   1.0000e-07
             **** THE GBW FILE WAS UPDATED (orca.gbw) ****
             **** DENSITY FILE WAS UPDATED (orca.scfp) ****
             **** ENERGY FILE WAS UPDATED (orca.en.tmp) ****
----------------------
UHF SPIN CONTAMINATION
----------------------

Expectation value of <S**2>     :     2.014180
Ideal value S*(S+1) for S=1.0   :     2.000000
Deviation                       :     0.014180

             **** THE GBW FILE WAS UPDATED (orca.gbw) ****
             **** DENSITY FILE WAS UPDATED (orca.scfp) ****
Total SCF time: 0 days 0 hours 0 min 0 sec 

-------------------------   --------------------
FINAL SINGLE POINT ENERGY       -38.908763898044
-------------------------   --------------------

------------------------------------------------------------------------------
                         ORCA SCF GRADIENT CALCULATION
------------------------------------------------------------------------------

Gradient of the Hartree-Fock SCF energy:
Hartree-Fock type                ... UHF
Number of operators              ...    2
Number of atoms                  ...    3
Basis set dimensions             ...   13
Integral neglect threshold       ... 2.5e-11
Integral primitive cutoff        ... 2.5e-12

Nuclear repulsion gradient       ... done
One Electron Gradient            ... done
Pre-screening matrix             ... done
Starting the two electron gradient:
Two electron gradient done

------------------
CARTESIAN GRADIENT
------------------

   1   C   :    0.001876800   -0.024999403    0.000000000
   2   H   :    0.003543473    0.012836164   -0.000000000
   3   H   :   -0.005420273    0.012163239   -0.000000000

Difference to translation invariance:
           :    0.0000000000   -0.0000000000   -0.0000000000

Norm of the cartesian gradient     ...    0.0313550561
RMS gradient                       ...    0.0104516854
MAX gradient                       ...    0.0249994026

-------
TIMINGS
-------

Total SCF gradient time            ...        0.120 sec

One electron gradient       ....       0.001 sec  (  0.4%)
Prescreening matrices       ....       0.001 sec  (  0.5%)
Two electron gradient       ....       0.004 sec  (  3.3%)
------------------------------------------------------------------------------
                         ORCA GEOMETRY RELAXATION STEP
------------------------------------------------------------------------------

Reading the OPT-File                    .... done
Getting information on internals        .... done
Copying old internal coords+grads       .... done
Making the new internal coordinates     .... (new redundants).... done
Validating the new internal coordinates .... (new redundants).... done
Calculating the B-matrix                .... done
Calculating the G,G- and P matrices     .... done
Transforming gradient to internals      .... done
Projecting the internal gradient        .... done
Number of atoms                         ....   3
Number of internal coordinates          ....   3
Current Energy                          ....   -38.908763898 Eh
Current gradient norm                   ....     0.031355056 Eh/bohr
Maximum allowed component of the step   ....  0.300
Current trust radius                    ....  0.300
Updating the Hessian (BFGS)             .... done
Forming the augmented Hessian           .... done
Diagonalizing the augmented Hessian     .... done
Last element of RFO vector              ....  0.984927214
Lowest eigenvalues of augmented Hessian:
 -0.004722527  0.153120726  0.335333434
Length of the computed step             ....  0.175616338
The final length of the internal step   ....  0.175616338
Converting the step to cartesian space:
 Initial RMS(Int)=    0.1013921400
Transforming coordinates:
 Iter   0:  RMS(Cart)=    0.0564556274 RMS(Int)=    0.1013055704
 Iter   1:  RMS(Cart)=    0.0034983884 RMS(Int)=    0.0063879532
 Iter   2:  RMS(Cart)=    0.0002170557 RMS(Int)=    0.0003895979
 Iter   3:  RMS(Cart)=    0.0000268441 RMS(Int)=    0.0000488999
 Iter   4:  RMS(Cart)=    0.0000016429 RMS(Int)=    0.0000029633
 Iter   5:  RMS(Cart)=    0.0000002044 RMS(Int)=    0.0000003714
 Iter   6:  RMS(Cart)=    0.0000000124 RMS(Int)=    0.0000000225
done
Storing new coordinates                 .... done

                                .--------------------.
          ----------------------|Geometry convergence|-------------------------
          Item                value                   Tolerance       Converged
          ---------------------------------------------------------------------
          Energy change      -0.0078067668            0.0000050000      NO
          RMS gradient        0.0155258792            0.0001000000      NO
          MAX gradient        0.0266636006            0.0003000000      NO
          RMS step            0.1013921400            0.0020000000      NO
          MAX step            0.1739918097            0.0040000000      NO
          ........................................................
          Max(Bonds)      0.0089      Max(Angles)    9.97
          Max(Dihed)        0.00      Max(Improp)    0.00
          ---------------------------------------------------------------------

The optimization has not yet converged - more geometry cycles are needed


    ---------------------------------------------------------------------------
                         Redundant Internal Coordinates
                            (Angstroem and degrees)

        Definition                    Value    dE/dq     Step     New-Value
    ----------------------------------------------------------------------------
     1. B(H   1,C   0)                1.0783  0.002471 -0.0089    1.0694   
     2. B(H   2,C   0)                1.0783  0.002471 -0.0089    1.0694   
     3. A(H   1,C   0,H   2)          119.16 -0.026664    9.97    129.13   
    ----------------------------------------------------------------------------

         *************************************************************
         *                GEOMETRY OPTIMIZATION CYCLE   3            *
         *************************************************************
---------------------------------
CARTESIAN COORDINATES (ANGSTROEM)
---------------------------------
  C      0.254944   -0.344294    0.000000
  H     -0.742476    0.041405    0.000000
  H      1.183592    0.186009    0.000000

----------------------------
CARTESIAN COORDINATES (A.U.)
----------------------------
  NO LB      ZA    FRAG     MASS         X           Y           Z
   0 C     6.0000    0    12.011    0.481774   -0.650622    0.000000
   1 H     1.0000    0     1.008   -1.403076    0.078244    0.000000
   2 H     1.0000    0     1.008    2.236665    0.351506    0.000000

--------------------------------
INTERNAL COORDINATES (ANGSTROEM)
--------------------------------
 C      0   0   0     0.000000000000     0.00000000     0.00000000
 H      1   0   0     1.069396605851     0.00000000     0.00000000
 H      1   2   0     1.069396815583   129.13018027     0.00000000

---------------------------
INTERNAL COORDINATES (A.U.)
---------------------------
 C      0   0   0     0.000000000000     0.00000000     0.00000000
 H      1   0   0     2.020866713603     0.00000000     0.00000000
 H      1   2   0     2.020867109940   129.13018027     0.00000000


Diagonalization of the overlap matrix:
Smallest eigenvalue                        ... 3.966e-02
Time for diagonalization                   ...    0.000 sec
Threshold for overlap eigenvalues          ... 1.000e-08
Number of eigenvalues below threshold      ... 0
Time for construction of square roots      ...    0.000 sec
Total time needed                          ...    0.000 sec

--------------
SCF ITERATIONS
--------------
ITER       Energy         Delta-E        Max-DP      RMS-DP      [F,P]     Damp
               ***  Starting incremental Fock matrix formation  ***
  0    -38.9107360764   0.000000000000 0.00161184  0.00029332  0.0162323 0.7000
  1    -38.9108933471  -0.000157270687 0.00163606  0.00027889  0.0136328 0.7000
                               ***Turning on DIIS***
  2    -38.9110293951  -0.000136048013 0.00451320  0.00077397  0.0111937 0.0000
  3    -38.9089398900   0.002089505092 0.00319374  0.00040602  0.0044671 0.0000
  4    -38.9116268810  -0.002686990952 0.00139240  0.00018326  0.0014991 0.0000
  5    -38.9115007448   0.000126136156 0.00115707  0.00013772  0.0006654 0.0000
  6    -38.9115352802  -0.000034535393 0.00026509  0.00003359  0.0001309 0.0000
  7    -38.9115242120   0.000011068204 0.00006086  0.00000979  0.0000266 0.0000
  8    -38.9115215051   0.000002706931 0.00002364  0.00000392  0.0000073 0.0000
  9    -38.9115221615  -0.000000656479 0.00000719  0.00000140  0.0000015 0.0000
                            ***DIIS convergence achieved***

               *****************************************************
               *                     SUCCESS                       *
               *           SCF CONVERGED AFTER  10 CYCLES          *
               *****************************************************

Total Energy       :          -38.91152247 Eh           -1058.83636 eV
  Last Energy change         ...   -3.1054e-07  Tolerance :   1.0000e-08
  Last MAX-Density change    ...    3.0497e-06  Tolerance :   1.0000e-07
             **** THE GBW FILE WAS UPDATED (orca.gbw) ****
             **** DENSITY FILE WAS UPDATED (orca.scfp) ****
             **** ENERGY FILE WAS UPDATED (orca.en.tmp) ****
----------------------
UHF SPIN CONTAMINATION
----------------------

Expectation value of <S**2>     :     2.015575
Ideal value S*(S+1) for S=1.0   :     2.000000
Deviation                       :     0.015575

             **** THE GBW FILE WAS UPDATED (orca.gbw) ****
             **** DENSITY FILE WAS UPDATED (orca.scfp) ****
Total SCF time: 0 days 0 hours 0 min 0 sec 

-------------------------   --------------------
FINAL SINGLE POINT ENERGY       -38.911522472075
-------------------------   --------------------

------------------------------------------------------------------------------
                         ORCA SCF GRADIENT CALCULATION
------------------------------------------------------------------------------

Gradient of the Hartree-Fock SCF energy:
Hartree-Fock type                ... UHF
Number of operators              ...    2
Number of atoms                  ...    3
Basis set dimensions             ...   13
Integral neglect threshold       ... 2.5e-11
Integral primitive cutoff        ... 2.5e-12

Nuclear repulsion gradient       ... done
One Electron Gradient            ... done
Pre-screening matrix             ... done
Starting the two electron gradient:
Two electron gradient done

------------------
CARTESIAN GRADIENT
------------------

   1   C   :    0.000279559   -0.003725607   -0.000000000
   2   H   :    0.002494710    0.002060558   -0.000000000
   3   H   :   -0.002774268    0.001665049    0.000000000

Difference to translation invariance:
           :    0.0000000000   -0.0000000000    0.0000000000

Norm of the cartesian gradient     ...    0.0059073453
RMS gradient                       ...    0.0019691151
MAX gradient                       ...    0.0037256068

-------
TIMINGS
-------

Total SCF gradient time            ...        0.104 sec

One electron gradient       ....       0.001 sec  (  0.5%)
Prescreening matrices       ....       0.001 sec  (  0.6%)
Two electron gradient       ....       0.004 sec  (  3.8%)
------------------------------------------------------------------------------
                         ORCA GEOMETRY RELAXATION STEP
------------------------------------------------------------------------------

Reading the OPT-File                    .... done
Getting information on internals        .... done
Copying old internal coords+grads       .... done
Making the new internal coordinates     .... (new redundants).... done
Validating the new internal coordinates .... (new redundants).... done
Calculating the B-matrix                .... done
Calculating the G,G- and P matrices     .... done
Transforming gradient to internals      .... done
Projecting the internal gradient        .... done
Number of atoms                         ....   3
Number of internal coordinates          ....   3
Current Energy                          ....   -38.911522472 Eh
Current gradient norm                   ....     0.005907345 Eh/bohr
Maximum allowed component of the step   ....  0.300
Current trust radius                    ....  0.300
Updating the Hessian (BFGS)             .... done
Forming the augmented Hessian           .... done
Diagonalizing the augmented Hessian     .... done
Last element of RFO vector              ....  0.998949478
Lowest eigenvalues of augmented Hessian:
 -0.000269149  0.121899804  0.335333434
Length of the computed step             ....  0.045873304
The final length of the internal step   ....  0.045873304
Converting the step to cartesian space:
 Initial RMS(Int)=    0.0264849644
Transforming coordinates:
 Iter   0:  RMS(Cart)=    0.0152300989 RMS(Int)=    0.0264846536
 Iter   1:  RMS(Cart)=    0.0002246620 RMS(Int)=    0.0004315471
 Iter   2:  RMS(Cart)=    0.0000041586 RMS(Int)=    0.0000069619
 Iter   3:  RMS(Cart)=    0.0000001137 RMS(Int)=    0.0000002238
 Iter   4:  RMS(Cart)=    0.0000000023 RMS(Int)=    0.0000000037
done
Storing new coordinates                 .... done

                                .--------------------.
          ----------------------|Geometry convergence|-------------------------
          Item                value                   Tolerance       Converged
          ---------------------------------------------------------------------
          Energy change      -0.0027585740            0.0000050000      NO
          RMS gradient        0.0035369335            0.0001000000      NO
          MAX gradient        0.0057021513            0.0003000000      NO
          RMS step            0.0264849644            0.0020000000      NO
          MAX step            0.0457174582            0.0040000000      NO
          ........................................................
          Max(Bonds)      0.0014      Max(Angles)    2.62
          Max(Dihed)        0.00      Max(Improp)    0.00
          ---------------------------------------------------------------------

The optimization has not yet converged - more geometry cycles are needed


    ---------------------------------------------------------------------------
                         Redundant Internal Coordinates
                            (Angstroem and degrees)

        Definition                    Value    dE/dq     Step     New-Value
    ----------------------------------------------------------------------------
     1. B(H   1,C   0)                1.0694 -0.001584  0.0014    1.0708   
     2. B(H   2,C   0)                1.0694 -0.001583  0.0014    1.0708   
     3. A(H   1,C   0,H   2)          129.13 -0.005702    2.62    131.75   
    ----------------------------------------------------------------------------

         *************************************************************
         *                GEOMETRY OPTIMIZATION CYCLE   4            *
         *************************************************************
---------------------------------
CARTESIAN COORDINATES (ANGSTROEM)
---------------------------------
  C      0.253865   -0.329924    0.000000
  H     -0.753440    0.033356    0.000000
  H      1.195635    0.179688    0.000000

----------------------------
CARTESIAN COORDINATES (A.U.)
----------------------------
  NO LB      ZA    FRAG     MASS         X           Y           Z
   0 C     6.0000    0    12.011    0.479735   -0.623466    0.000000
   1 H     1.0000    0     1.008   -1.423795    0.063035    0.000000
   2 H     1.0000    0     1.008    2.259422    0.339560    0.000000

--------------------------------
INTERNAL COORDINATES (ANGSTROEM)
--------------------------------
 C      0   0   0     0.000000000000     0.00000000     0.00000000
 H      1   0   0     1.070810439139     0.00000000     0.00000000
 H      1   2   0     1.070810397096   131.74959767     0.00000000

---------------------------
INTERNAL COORDINATES (A.U.)
---------------------------
 C      0   0   0     0.000000000000     0.00000000     0.00000000
 H      1   0   0     2.023538471316     0.00000000     0.00000000
 H      1   2   0     2.023538391868   131.74959767     0.00000000


Diagonalization of the overlap matrix:
Smallest eigenvalue                        ... 4.075e-02
Time for diagonalization                   ...    0.000 sec
Threshold for overlap eigenvalues          ... 1.000e-08
Number of eigenvalues below threshold      ... 0
Time for construction of square roots      ...    0.000 sec
Total time needed                          ...    0.000 sec

--------------
SCF ITERATIONS
--------------
ITER       Energy         Delta-E        Max-DP      RMS-DP      [F,P]     Damp
               ***  Starting incremental Fock matrix formation  ***
  0    -38.9116203374   0.000000000000 0.00047841  0.00007484  0.0049658 0.7000
  1    -38.9116311646  -0.000010827245 0.00044220  0.00007230  0.0041370 0.7000
                               ***Turning on DIIS***
  2    -38.9116406287  -0.000009464111 0.00130800  0.00020358  0.0033621 0.0000
  3    -38.9118850592  -0.000244430454 0.00082428  0.00011327  0.0012515 0.0000
  4    -38.9116804415   0.000204617660 0.00063739  0.00007462  0.0004014 0.0000
  5    -38.9116668776   0.000013563968 0.00020694  0.00002461  0.0001131 0.0000
  6    -38.9116770727  -0.000010195152 0.00004771  0.00000699  0.0000232 0.0000
  7    -38.9116739031   0.000003169617 0.00001613  0.00000297  0.0000057 0.0000
  8    -38.9116755735  -0.000001670427 0.00000771  0.00000141  0.0000017 0.0000
                            ***DIIS convergence achieved***

               *****************************************************
               *                     SUCCESS                       *
               *           SCF CONVERGED AFTER   9 CYCLES          *
               *****************************************************

Total Energy       :          -38.91167537 Eh           -1058.84052 eV
  Last Energy change         ...    2.0783e-07  Tolerance :   1.0000e-08
  Last MAX-Density change    ...    2.6698e-06  Tolerance :   1.0000e-07
             **** THE GBW FILE WAS UPDATED (orca.gbw) ****
             **** DENSITY FILE WAS UPDATED (orca.scfp) ****
             **** ENERGY FILE WAS UPDATED (orca.en.tmp) ****
----------------------
UHF SPIN CONTAMINATION
----------------------

Expectation value of <S**2>     :     2.016343
Ideal value S*(S+1) for S=1.0   :     2.000000
Deviation                       :     0.016343

             **** THE GBW FILE WAS UPDATED (orca.gbw) ****
             **** DENSITY FILE WAS UPDATED (orca.scfp) ****
Total SCF time: 0 days 0 hours 0 min 0 sec 

-------------------------   --------------------
FINAL SINGLE POINT ENERGY       -38.911675365690
-------------------------   --------------------

------------------------------------------------------------------------------
                         ORCA SCF GRADIENT CALCULATION
------------------------------------------------------------------------------

Gradient of the Hartree-Fock SCF energy:
Hartree-Fock type                ... UHF
Number of operators              ...    2
Number of atoms                  ...    3
Basis set dimensions             ...   13
Integral neglect threshold       ... 2.5e-11
Integral primitive cutoff        ... 2.5e-12

Nuclear repulsion gradient       ... done
One Electron Gradient            ... done
Pre-screening matrix             ... done
Starting the two electron gradient:
Two electron gradient done

------------------
CARTESIAN GRADIENT
------------------

   1   C   :    0.000068089   -0.000906522    0.000000000
   2   H   :    0.000029313    0.000458024   -0.000000000
   3   H   :   -0.000097402    0.000448497   -0.000000000

Difference to translation invariance:
           :   -0.0000000000    0.0000000000   -0.0000000000

Norm of the cartesian gradient     ...    0.0011170051
RMS gradient                       ...    0.0003723350
MAX gradient                       ...    0.0009065217

-------
TIMINGS
-------

Total SCF gradient time            ...        0.120 sec

One electron gradient       ....       0.001 sec  (  0.5%)
Prescreening matrices       ....       0.001 sec  (  0.6%)
Two electron gradient       ....       0.004 sec  (  3.4%)
------------------------------------------------------------------------------
                         ORCA GEOMETRY RELAXATION STEP
------------------------------------------------------------------------------

Reading the OPT-File                    .... done
Getting information on internals        .... done
Copying old internal coords+grads       .... done
Making the new internal coordinates     .... (new redundants).... done
Validating the new internal coordinates .... (new redundants).... done
Calculating the B-matrix                .... done
Calculating the G,G- and P matrices     .... done
Transforming gradient to internals      .... done
Projecting the internal gradient        .... done
Number of atoms                         ....   3
Number of internal coordinates          ....   3
Current Energy                          ....   -38.911675366 Eh
Current gradient norm                   ....     0.001117005 Eh/bohr
Maximum allowed component of the step   ....  0.300
Current trust radius                    ....  0.300
Updating the Hessian (BFGS)             .... done
Forming the augmented Hessian           .... done
Diagonalizing the augmented Hessian     .... done
Last element of RFO vector              ....  0.999960575
Lowest eigenvalues of augmented Hessian:
 -0.000008049  0.101774895  0.335333434
Length of the computed step             ....  0.008880037
The final length of the internal step   ....  0.008880037
Converting the step to cartesian space:
 Initial RMS(Int)=    0.0051268919
Transforming coordinates:
 Iter   0:  RMS(Cart)=    0.0027006886 RMS(Int)=    0.0051268436
 Iter   1:  RMS(Cart)=    0.0000091717 RMS(Int)=    0.0000161899
 Iter   2:  RMS(Cart)=    0.0000000253 RMS(Int)=    0.0000000502
done
Storing new coordinates                 .... done

                                .--------------------.
          ----------------------|Geometry convergence|-------------------------
          Item                value                   Tolerance       Converged
          ---------------------------------------------------------------------
          Energy change      -0.0001528936            0.0000050000      NO
          RMS gradient        0.0005254532            0.0001000000      NO
          MAX gradient        0.0008919859            0.0003000000      NO
          RMS step            0.0051268919            0.0020000000      NO
          MAX step            0.0088262280            0.0040000000      NO
          ........................................................
          Max(Bonds)      0.0004      Max(Angles)    0.51
          Max(Dihed)        0.00      Max(Improp)    0.00
          ---------------------------------------------------------------------

The optimization has not yet converged - more geometry cycles are needed


    ---------------------------------------------------------------------------
                         Redundant Internal Coordinates
                            (Angstroem and degrees)

        Definition                    Value    dE/dq     Step     New-Value
    ----------------------------------------------------------------------------
     1. B(H   1,C   0)                1.0708  0.000128 -0.0004    1.0704   
     2. B(H   2,C   0)                1.0708  0.000128 -0.0004    1.0704   
     3. A(H   1,C   0,H   2)          131.75 -0.000892    0.51    132.26   
    ----------------------------------------------------------------------------

         *************************************************************
         *                GEOMETRY OPTIMIZATION CYCLE   5            *
         *************************************************************
---------------------------------
CARTESIAN COORDINATES (ANGSTROEM)
---------------------------------
  C      0.253642   -0.326956    0.000000
  H     -0.754912    0.031753    0.000000
  H      1.197330    0.178322    0.000000

----------------------------
CARTESIAN COORDINATES (A.U.)
----------------------------
  NO LB      ZA    FRAG     MASS         X           Y           Z
   0 C     6.0000    0    12.011    0.479314   -0.617857    0.000000
   1 H     1.0000    0     1.008   -1.426576    0.060005    0.000000
   2 H     1.0000    0     1.008    2.262625    0.336980    0.000000

--------------------------------
INTERNAL COORDINATES (ANGSTROEM)
--------------------------------
 C      0   0   0     0.000000000000     0.00000000     0.00000000
 H      1   0   0     1.070445169770     0.00000000     0.00000000
 H      1   2   0     1.070445186577   132.25530328     0.00000000

---------------------------
INTERNAL COORDINATES (A.U.)
---------------------------
 C      0   0   0     0.000000000000     0.00000000     0.00000000
 H      1   0   0     2.022848212245     0.00000000     0.00000000
 H      1   2   0     2.022848244005   132.25530328     0.00000000


Diagonalization of the overlap matrix:
Smallest eigenvalue                        ... 4.089e-02
Time for diagonalization                   ...    0.000 sec
Threshold for overlap eigenvalues          ... 1.000e-08
Number of eigenvalues below threshold      ... 0
Time for construction of square roots      ...    0.000 sec
Total time needed                          ...    0.001 sec

--------------
SCF ITERATIONS
--------------
ITER       Energy         Delta-E        Max-DP      RMS-DP      [F,P]     Damp
               ***  Starting incremental Fock matrix formation  ***
  0    -38.9116776515   0.000000000000 0.00009225  0.00001542  0.0008891 0.7000
  1    -38.9116780856  -0.000000434095 0.00009686  0.00001502  0.0007462 0.7000
                               ***Turning on DIIS***
  2    -38.9116784650  -0.000000379428 0.00029868  0.00004482  0.0006127 0.0000
  3    -38.9115877483   0.000090716699 0.00022891  0.00003054  0.0002329 0.0000
  4    -38.9116890270  -0.000101278689 0.00007692  0.00000891  0.0000532 0.0000
  5    -38.9116780124   0.000011014620 0.00003119  0.00000387  0.0000175 0.0000
  6    -38.9116804209  -0.000002408513 0.00000916  0.00000136  0.0000043 0.0000
                            ***DIIS convergence achieved***

               *****************************************************
               *                     SUCCESS                       *
               *           SCF CONVERGED AFTER   7 CYCLES          *
               *****************************************************

Total Energy       :          -38.91168005 Eh           -1058.84064 eV
  Last Energy change         ...    3.7378e-07  Tolerance :   1.0000e-08
  Last MAX-Density change    ...    3.1070e-06  Tolerance :   1.0000e-07
             **** THE GBW FILE WAS UPDATED (orca.gbw) ****
             **** DENSITY FILE WAS UPDATED (orca.scfp) ****
             **** ENERGY FILE WAS UPDATED (orca.en.tmp) ****
----------------------
UHF SPIN CONTAMINATION
----------------------

Expectation value of <S**2>     :     2.016474
Ideal value S*(S+1) for S=1.0   :     2.000000
Deviation                       :     0.016474

             **** THE GBW FILE WAS UPDATED (orca.gbw) ****
             **** DENSITY FILE WAS UPDATED (orca.scfp) ****
Total SCF time: 0 days 0 hours 0 min 0 sec 

-------------------------   --------------------
FINAL SINGLE POINT ENERGY       -38.911680047108
-------------------------   --------------------

------------------------------------------------------------------------------
                         ORCA SCF GRADIENT CALCULATION
------------------------------------------------------------------------------

Gradient of the Hartree-Fock SCF energy:
Hartree-Fock type                ... UHF
Number of operators              ...    2
Number of atoms                  ...    3
Basis set dimensions             ...   13
Integral neglect threshold       ... 2.5e-11
Integral primitive cutoff        ... 2.5e-12

Nuclear repulsion gradient       ... done
One Electron Gradient            ... done
Pre-screening matrix             ... done
Starting the two electron gradient:
Two electron gradient done

------------------
CARTESIAN GRADIENT
------------------

   1   C   :    0.000000679   -0.000009199    0.000000000
   2   H   :    0.000041199    0.000007715   -0.000000000
   3   H   :   -0.000041878    0.000001484    0.000000000

Difference to translation invariance:
           :    0.0000000000   -0.0000000000   -0.0000000000

Norm of the cartesian gradient     ...    0.0000599824
RMS gradient                       ...    0.0000199941
MAX gradient                       ...    0.0000418775

-------
TIMINGS
-------

Total SCF gradient time            ...        0.105 sec

One electron gradient       ....       0.001 sec  (  0.5%)
Prescreening matrices       ....       0.001 sec  (  0.6%)
Two electron gradient       ....       0.004 sec  (  3.9%)
------------------------------------------------------------------------------
                         ORCA GEOMETRY RELAXATION STEP
------------------------------------------------------------------------------

Reading the OPT-File                    .... done
Getting information on internals        .... done
Copying old internal coords+grads       .... done
Making the new internal coordinates     .... (new redundants).... done
Validating the new internal coordinates .... (new redundants).... done
Calculating the B-matrix                .... done
Calculating the G,G- and P matrices     .... done
Transforming gradient to internals      .... done
Projecting the internal gradient        .... done
Number of atoms                         ....   3
Number of internal coordinates          ....   3
Current Energy                          ....   -38.911680047 Eh
Current gradient norm                   ....     0.000059982 Eh/bohr
Maximum allowed component of the step   ....  0.300
Current trust radius                    ....  0.300
Updating the Hessian (BFGS)             .... done
Forming the augmented Hessian           .... done
Diagonalizing the augmented Hessian     .... done
Last element of RFO vector              ....  0.999999907
Lowest eigenvalues of augmented Hessian:
 -0.000000024  0.097104117  0.335333434
Length of the computed step             ....  0.000431898
The final length of the internal step   ....  0.000431898
Converting the step to cartesian space:
 Initial RMS(Int)=    0.0002493564
Transforming coordinates:
 Iter   0:  RMS(Cart)=    0.0001501297 RMS(Int)=    0.0002493566
 Iter   1:  RMS(Cart)=    0.0000000180 RMS(Int)=    0.0000000370
done
Storing new coordinates                 .... done

                                .--------------------.
          ----------------------|Geometry convergence|-------------------------
          Item                value                   Tolerance       Converged
          ---------------------------------------------------------------------
          Energy change      -0.0000046814            0.0000050000      YES
          RMS gradient        0.0000384793            0.0001000000      YES
          MAX gradient        0.0000426319            0.0003000000      YES
          RMS step            0.0002493564            0.0020000000      YES
          MAX step            0.0004159252            0.0040000000      YES
          ........................................................
          Max(Bonds)      0.0000      Max(Angles)    0.02
          Max(Dihed)        0.00      Max(Improp)    0.00
          ---------------------------------------------------------------------

                    ***********************HURRAY********************
                    ***        THE OPTIMIZATION HAS CONVERGED     ***
                    *************************************************


    ---------------------------------------------------------------------------
                         Redundant Internal Coordinates

                          --- Optimized Parameters ---  
                            (Angstroem and degrees)

        Definition                    OldVal   dE/dq     Step     FinalVal
    ----------------------------------------------------------------------------
     1. B(H   1,C   0)                1.0704 -0.000036  0.0000    1.0705   
     2. B(H   2,C   0)                1.0704 -0.000036  0.0000    1.0705   
     3. A(H   1,C   0,H   2)          132.26 -0.000043    0.02    132.28   
    ----------------------------------------------------------------------------
                 *******************************************************
                 *** FINAL ENERGY EVALUATION AT THE STATIONARY POINT ***
                 ***               (AFTER    5 CYCLES)               ***
                 *******************************************************
---------------------------------
CARTESIAN COORDINATES (ANGSTROEM)
---------------------------------
  C      0.253633   -0.326832    0.000000
  H     -0.755037    0.031682    0.000000
  H      1.197464    0.178270    0.000000

----------------------------
CARTESIAN COORDINATES (A.U.)
----------------------------
  NO LB      ZA    FRAG     MASS         X           Y           Z
   0 C     6.0000    0    12.011    0.479296   -0.617623    0.000000
   1 H     1.0000    0     1.008   -1.426812    0.059870    0.000000
   2 H     1.0000    0     1.008    2.262879    0.336882    0.000000

--------------------------------
INTERNAL COORDINATES (ANGSTROEM)
--------------------------------
 C      0   0   0     0.000000000000     0.00000000     0.00000000
 H      1   0   0     1.070488724252     0.00000000     0.00000000
 H      1   2   0     1.070488720254   132.27913404     0.00000000

---------------------------
INTERNAL COORDINATES (A.U.)
---------------------------
 C      0   0   0     0.000000000000     0.00000000     0.00000000
 H      1   0   0     2.022930518288     0.00000000     0.00000000
 H      1   2   0     2.022930510732   132.27913404     0.00000000

---------------------
BASIS SET INFORMATION
---------------------
There are 2 groups of distinct atoms

 Group   1 Type C   : 10s4p contracted to 3s2p pattern {631/31}
 Group   2 Type H   : 4s contracted to 2s pattern {31}

Atom   0C    basis set group =>   1
Atom   1H    basis set group =>   2
Atom   2H    basis set group =>   2
------------------------------------------------------------------------------
                           ORCA GTO INTEGRAL CALCULATION
------------------------------------------------------------------------------

                         BASIS SET STATISTICS AND STARTUP INFO

 # of primitive gaussian shells          ...   22
 # of primitive gaussian functions       ...   30
 # of contracted shells                  ...    9
 # of contracted basis functions         ...   13
 Highest angular momentum                ...    1
 Maximum contraction depth               ...    6
 Integral package used                   ... LIBINT
 Integral threshhold            Thresh   ...  2.500e-11
 Primitive cut-off              TCut     ...  2.500e-12


------------------------------ INTEGRAL EVALUATION ----------------------------


 * One electron integrals 
 Pre-screening matrix                    ... done
 Shell pair data                         ... done (   0.000 sec)

-------------------------------------------------------------------------------
                                 ORCA SCF
-------------------------------------------------------------------------------

------------
SCF SETTINGS
------------
Hamiltonian:
 Ab initio Hamiltonian  Method          .... Hartree-Fock(GTOs)


General Settings:
 Integral files         IntName         .... orca
 Hartree-Fock type      HFTyp           .... UHF
 Total Charge           Charge          ....    0
 Multiplicity           Mult            ....    3
 Number of Electrons    NEL             ....    8
 Basis Dimension        Dim             ....   13
 Nuclear Repulsion      ENuc            ....      6.2022529829 Eh

Convergence Acceleration:
 DIIS                   CNVDIIS         .... on
   Start iteration      DIISMaxIt       ....    12
   Startup error        DIISStart       ....  0.200000
   # of expansion vecs  DIISMaxEq       ....     5
   Bias factor          DIISBfac        ....   1.050
   Max. coefficient     DIISMaxC        ....  10.000
 Newton-Raphson         CNVNR           .... off
 SOSCF                  CNVSOSCF        .... off
 Level Shifting         CNVShift        .... on
   Level shift para.    LevelShift      ....    0.2500
   Turn off err/grad.   ShiftErr        ....    0.0010
 Zerner damping         CNVZerner       .... off
 Static damping         CNVDamp         .... on
   Fraction old density DampFac         ....    0.7000
   Max. Damping (<1)    DampMax         ....    0.9800
   Min. Damping (>=0)   DampMin         ....    0.0000
   Turn off err/grad.   DampErr         ....    0.1000
 Fernandez-Rico         CNVRico         .... off

SCF Procedure:
 Maximum # iterations   MaxIter         ....   125
 SCF integral mode      SCFMode         .... Direct
   Integral package                     .... LIBINT
 Reset frequency        DirectResetFreq ....    20
 Integral Threshold     Thresh          ....  2.500e-11 Eh
 Primitive CutOff       TCut            ....  2.500e-12 Eh

Convergence Tolerance:
 Convergence Check Mode ConvCheckMode   .... Total+1el-Energy
 Convergence forced     ConvForced      .... 0
 Energy Change          TolE            ....  1.000e-08 Eh
 1-El. energy change                    ....  1.000e-05 Eh
 DIIS Error             TolErr          ....  5.000e-07


Diagonalization of the overlap matrix:
Smallest eigenvalue                        ... 4.091e-02
Time for diagonalization                   ...    0.000 sec
Threshold for overlap eigenvalues          ... 1.000e-08
Number of eigenvalues below threshold      ... 0
Time for construction of square roots      ...    0.000 sec
Total time needed                          ...    0.000 sec

---------------------
INITIAL GUESS: MOREAD
---------------------
Guess MOs are being read from file: orca.gbw
Input Geometry matches current geometry (good)
Input basis set matches current basis set (good)
MOs were renormalized
MOs were reorthogonalized (Cholesky)
                      ------------------
                      INITIAL GUESS DONE (   0.0 sec)
                      ------------------
--------------
SCF ITERATIONS
--------------
ITER       Energy         Delta-E        Max-DP      RMS-DP      [F,P]     Damp
               ***  Starting incremental Fock matrix formation  ***
  0    -38.9116798908   0.000000000000 0.00000481  0.00000077  0.0000505 0.7000
  1    -38.9116798919  -0.000000001096 0.00000453  0.00000073  0.0000418 0.7000
                               ***Turning on DIIS***
  2    -38.9116798929  -0.000000000939 0.00001368  0.00000210  0.0000338 0.0000
  3    -38.9116866080  -0.000006715125 0.00001008  0.00000132  0.0000114 0.0000
  4    -38.9116794317   0.000007176280 0.00000399  0.00000046  0.0000025 0.0000
                            ***DIIS convergence achieved***

               *****************************************************
               *                     SUCCESS                       *
               *           SCF CONVERGED AFTER   5 CYCLES          *
               *****************************************************


----------------
TOTAL SCF ENERGY
----------------

Total Energy       :          -38.91167980 Eh           -1058.84064 eV

Components:
Nuclear Repulsion  :            6.20225298 Eh             168.77188 eV
Electronic Energy  :          -45.11393278 Eh           -1227.61252 eV
One Electron Energy:          -63.97349814 Eh           -1740.80739 eV
Two Electron Energy:           18.85956536 Eh             513.19486 eV

Virial components:
Potential Energy   :          -77.88632633 Eh           -2119.39469 eV
Kinetic Energy     :           38.97464653 Eh            1060.55405 eV
Virial Ratio       :            1.99838442


---------------
SCF CONVERGENCE
---------------

  Last Energy change         ...   -3.6374e-07  Tolerance :   1.0000e-08
  Last MAX-Density change    ...    1.4704e-06  Tolerance :   1.0000e-07
  Last RMS-Density change    ...    1.8915e-07  Tolerance :   5.0000e-09
  Last DIIS Error            ...    8.7739e-07  Tolerance :   5.0000e-07

             **** THE GBW FILE WAS UPDATED (orca.gbw) ****
             **** DENSITY FILE WAS UPDATED (orca.scfp) ****
             **** ENERGY FILE WAS UPDATED (orca.en.tmp) ****
----------------------
UHF SPIN CONTAMINATION
----------------------

Expectation value of <S**2>     :     2.016485
Ideal value S*(S+1) for S=1.0   :     2.000000
Deviation                       :     0.016485

             **** THE GBW FILE WAS UPDATED (orca.gbw) ****
             **** DENSITY FILE WAS UPDATED (orca.scfp) ****
----------------
ORBITAL ENERGIES
----------------
                 SPIN UP ORBITALS
  NO   OCC          E(Eh)            E(eV) 
   0   1.0000     -11.260785      -306.4215 
   1   1.0000      -0.952740       -25.9254 
   2   1.0000      -0.618133       -16.8202 
   3   1.0000      -0.449939       -12.2435 
   4   1.0000      -0.408852       -11.1254 
   5   0.0000       0.255686         6.9576 
   6   0.0000       0.326363         8.8808 
   7   0.0000       0.721853        19.6426 
   8   0.0000       0.729383        19.8475 
   9   0.0000       0.787143        21.4193 
  10   0.0000       0.835828        22.7440 
  11   0.0000       1.193007        32.4634 
  12   0.0000       1.268342        34.5134 

                 SPIN DOWN ORBITALS
  NO   OCC          E(Eh)            E(eV) 
   0   1.0000     -11.210918      -305.0646 
   1   1.0000      -0.773911       -21.0592 
   2   1.0000      -0.579091       -15.7579 
   3   0.0000       0.148238         4.0338 
   4   0.0000       0.173749         4.7280 
   5   0.0000       0.287183         7.8146 
   6   0.0000       0.362202         9.8560 
   7   0.0000       0.820154        22.3175 
   8   0.0000       0.828335        22.5401 
   9   0.0000       0.898800        24.4576 
  10   0.0000       0.938032        25.5252 
  11   0.0000       1.230556        33.4851 
  12   0.0000       1.297507        35.3070 

                    ********************************
                    * MULLIKEN POPULATION ANALYSIS *
                    ********************************

--------------------------------------------
MULLIKEN ATOMIC CHARGES AND SPIN POPULATIONS
--------------------------------------------
   0 C :   -0.300633    2.294709
   1 H :    0.150317   -0.147355
   2 H :    0.150317   -0.147355
Sum of atomic charges         :   -0.0000000
Sum of atomic spin populations:    2.0000000

-----------------------------------------------------
MULLIKEN REDUCED ORBITAL CHARGES AND SPIN POPULATIONS
-----------------------------------------------------
CHARGE
  0 C s       :     3.374695  s :     3.374695
      pz      :     1.000000  p :     2.925938
      px      :     1.014499
      py      :     0.911439
  1 H s       :     0.849683  s :     0.849683
  2 H s       :     0.849683  s :     0.849683

SPIN
  0 C s       :     0.338230  s :     0.338230
      pz      :     1.000000  p :     1.956480
      px      :     0.130609
      py      :     0.825871
  1 H s       :    -0.147355  s :    -0.147355
  2 H s       :    -0.147355  s :    -0.147355


                     *******************************
                     * LOEWDIN POPULATION ANALYSIS *
                     *******************************

-------------------------------------------
LOEWDIN ATOMIC CHARGES AND SPIN POPULATIONS
-------------------------------------------
   0 C :   -0.231996    2.142838
   1 H :    0.115998   -0.071419
   2 H :    0.115998   -0.071419

----------------------------------------------------
LOEWDIN REDUCED ORBITAL CHARGES AND SPIN POPULATIONS
----------------------------------------------------
CHARGE
  0 C s       :     3.195104  s :     3.195104
      pz      :     1.000000  p :     3.036891
      px      :     1.111574
      py      :     0.925317
  1 H s       :     0.884002  s :     0.884002
  2 H s       :     0.884002  s :     0.884002

SPIN
  0 C s       :     0.231335  s :     0.231335
      pz      :     1.000000  p :     1.911502
      px      :     0.073614
      py      :     0.837888
  1 H s       :    -0.071419  s :    -0.071419
  2 H s       :    -0.071419  s :    -0.071419


                      *****************************
                      * MAYER POPULATION ANALYSIS *
                      *****************************

  NA   - Mulliken gross atomic population
  ZA   - Total nuclear charge
  QA   - Mulliken gross atomic charge
  VA   - Mayer's total valence
  BVA  - Mayer's bonded valence
  FA   - Mayer's free valence

  ATOM       NA         ZA         QA         VA         BVA        FA
  0 C      6.3006     6.0000    -0.3006     3.8513     1.8555     1.9959
  1 H      0.8497     1.0000     0.1503     0.9488     0.9266     0.0222
  2 H      0.8497     1.0000     0.1503     0.9488     0.9266     0.0222

  Mayer bond orders larger than 0.100000
B(  0-C ,  1-H ) :   0.9277 B(  0-C ,  2-H ) :   0.9277 

-------
TIMINGS
-------

Total SCF time: 0 days 0 hours 0 min 0 sec 

Total time                  ....       0.495 sec
Sum of individual times     ....       0.341 sec  ( 69.0%)

Fock matrix formation       ....       0.339 sec  ( 68.6%)
Diagonalization             ....       0.001 sec  (  0.1%)
Density matrix formation    ....       0.000 sec  (  0.0%)
Population analysis         ....       0.001 sec  (  0.1%)
Initial guess               ....       0.000 sec  (  0.1%)
Orbital Transformation      ....       0.000 sec  (  0.0%)
Orbital Orthonormalization  ....       0.000 sec  (  0.0%)
DIIS solution               ....       0.000 sec  (  0.1%)

-------------------------   --------------------
FINAL SINGLE POINT ENERGY       -38.911679795433
-------------------------   --------------------

                                *** OPTIMIZATION RUN DONE ***

                            ***************************************
                            *     ORCA property calculations      *
                            ***************************************

                                    ---------------------
                                    Active property flags
                                    ---------------------
   (+) Dipole Moment


------------------------------------------------------------------------------
                       ORCA ELECTRIC PROPERTIES CALCULATION
------------------------------------------------------------------------------

Dipole Moment Calculation                       ... on
Quadrupole Moment Calculation                   ... off
Polarizability Calculation                      ... off
GBWName                                         ... orca.gbw
Electron density file                           ... orca.scfp
The origin for moment calculation is the CENTER OF MASS  = ( 0.470491, -0.500346  0.000000)

-------------
DIPOLE MOMENT
-------------
                                X             Y             Z
Electronic contribution:      0.03448      -0.45925      -0.00000
Nuclear contribution   :     -0.05209       0.69378       0.00000
                        -----------------------------------------
Total Dipole Moment    :     -0.01761       0.23453      -0.00000
                        -----------------------------------------
Magnitude (a.u.)       :      0.23519
Magnitude (Debye)      :      0.59780



--------------------
Rotational spectrum 
--------------------
 
Rotational constants in cm-1:    52.079764     8.724548     7.472700 
Rotational constants in MHz : 1561312.047230 261555.363068 224025.914923 

 Dipole components along the rotational axes: 
x,y,z [a.u.] :     0.000000     0.235188    -0.000000 
x,y,z [Debye]:     0.000000     0.597800    -0.000000 

 

Timings for individual modules:

Sum of individual times         ...        9.795 sec (=   0.163 min)
GTO integral calculation        ...        1.925 sec (=   0.032 min)  19.7 %
SCF iterations                  ...        5.358 sec (=   0.089 min)  54.7 %
SCF Gradient evaluation         ...        1.535 sec (=   0.026 min)  15.7 %
Geometry relaxation             ...        0.976 sec (=   0.016 min)  10.0 %
                             ****ORCA TERMINATED NORMALLY****
TOTAL RUN TIME: 0 days 0 hours 0 minutes 10 seconds 744 msec
