
                                 *****************
                                 * O   R   C   A *
                                 *****************

           --- An Ab Initio, DFT and Semiempirical electronic structure package ---

                  #######################################################
                  #                        -***-                        #
                  #          Department of theory and spectroscopy      #
                  #               Directorship: Frank Neese             #
                  #        Max Planck Institute fuer Kohlenforschung    #
                  #                Kaiser Wilhelm Platz 1               #
                  #                 D-45470 Muelheim/Ruhr               #
                  #                      Germany                        #
                  #                                                     #
                  #                  All rights reserved                #
                  #                        -***-                        #
                  #######################################################


                         Program Version 4.2.1 -  RELEASE  -


 With contributions from (in alphabetic order):
   Daniel Aravena         : Magnetic Suceptibility
   Michael Atanasov       : Ab Initio Ligand Field Theory (pilot matlab implementation)
   Alexander A. Auer      : GIAO ZORA, VPT2
   Ute Becker             : Parallelization
   Giovanni Bistoni       : ED, misc. LED, open-shell LED, HFLD
   Martin Brehm           : Molecular dynamics
   Dmytro Bykov           : SCF Hessian
   Vijay G. Chilkuri      : MRCI spin determinant printing, contributions to CSF-ICE
   Dipayan Datta          : RHF DLPNO-CCSD density
   Achintya Kumar Dutta   : EOM-CC, STEOM-CC
   Dmitry Ganyushin       : Spin-Orbit,Spin-Spin,Magnetic field MRCI
   Miquel Garcia          : C-PCM Hessian, Gaussian charge scheme
   Yang Guo               : DLPNO-NEVPT2, CIM, IAO-localization
   Andreas Hansen         : Spin unrestricted coupled pair/coupled cluster methods
   Benjamin Helmich-Paris : CASSCF linear response (MC-RPA)
   Lee Huntington         : MR-EOM, pCC
   Robert Izsak           : Overlap fitted RIJCOSX, COSX-SCS-MP3, EOM
   Christian Kollmar      : KDIIS, OOCD, Brueckner-CCSD(T), CCSD density
   Simone Kossmann        : Meta GGA functionals, TD-DFT gradient, OOMP2, MP2 Hessian
   Martin Krupicka        : AUTO-CI
   Lucas Lang             : DCDCAS
   Dagmar Lenk            : GEPOL surface, SMD
   Dimitrios Liakos       : Extrapolation schemes; Compound Job, initial MDCI parallelization
   Dimitrios Manganas     : Further ROCIS development; embedding schemes
   Dimitrios Pantazis     : SARC Basis sets
   Taras Petrenko         : DFT Hessian,TD-DFT gradient, ASA, ECA, R-Raman, ABS, FL, XAS/XES, NRVS
   Peter Pinski           : DLPNO-MP2, DLPNO-MP2 Gradient
   Christoph Reimann      : Effective Core Potentials
   Marius Retegan         : Local ZFS, SOC
   Christoph Riplinger    : Optimizer, TS searches, QM/MM, DLPNO-CCSD(T), (RO)-DLPNO pert. Triples
   Tobias Risthaus        : Range-separated hybrids, TD-DFT gradient, RPA, STAB
   Michael Roemelt        : Original ROCIS implementation
   Masaaki Saitow         : Open-shell DLPNO-CCSD energy and density
   Barbara Sandhoefer     : DKH picture change effects
   Avijit Sen             : IP-ROCIS
   Kantharuban Sivalingam : CASSCF convergence, NEVPT2, FIC-MRCI
   Bernardo de Souza      : ESD, SOC TD-DFT
   Georgi Stoychev        : AutoAux, RI-MP2 NMR
   Willem Van den Heuvel  : Paramagnetic NMR
   Boris Wezisla          : Elementary symmetry handling
   Frank Wennmohs         : Technical directorship


 We gratefully acknowledge several colleagues who have allowed us to
 interface, adapt or use parts of their codes:
   Stefan Grimme, W. Hujo, H. Kruse,             : VdW corrections, initial TS optimization,
                  C. Bannwarth                     DFT functionals, gCP, sTDA/sTD-DF
   Ed Valeev, F. Pavosevic, A. Kumar             : LibInt (2-el integral package), F12 methods
   Garnet Chan, S. Sharma, J. Yang, R. Olivares  : DMRG
   Ulf Ekstrom                                   : XCFun DFT Library
   Mihaly Kallay                                 : mrcc  (arbitrary order and MRCC methods)
   Andreas Klamt, Michael Diedenhofen            : otool_cosmo (COSMO solvation model)
   Jiri Pittner, Ondrej Demel                    : Mk-CCSD
   Frank Weinhold                                : gennbo (NPA and NBO analysis)
   Christopher J. Cramer and Donald G. Truhlar   : smd solvation model
   Lars Goerigk                                  : TD-DFT with DH, B97 family of functionals
   V. Asgeirsson, H. Jonsson                     : NEB implementation
   FAccTs GmbH                                   : IRC, NEB, NEB-TS, Multilevel, MM, QM/MM, CI optimization
   S Lehtola, MJT Oliveira, MAL Marques          : LibXC Library


 Your calculation uses the libint2 library for the computation of 2-el integrals
 For citations please refer to: http://libint.valeyev.net

 Your ORCA version has been built with support for libXC version: 4.2.3
 For citations please refer to: https://tddft.org/programs/libxc/

 This ORCA versions uses:
   CBLAS   interface :  Fast vector & matrix operations
   LAPACKE interface :  Fast linear algebra routines
   SCALAPACK package :  Parallel linear algebra routines


----- Orbital basis set information -----
Your calculation utilizes the basis: aug-cc-pVTZ 
    H, B-Ne : Obtained from the ccRepo (grant-hill.group.shef.ac.uk/ccrepo) Feb. 2017
              R. A. Kendall, T. H. Dunning, Jr., R. J. Harrison, J. Chem. Phys. 96, 6796 (1992)
         He : Obtained from the ccRepo (grant-hill.group.shef.ac.uk/ccrepo) Feb. 2017
              D. E. Woon, T. H. Dunning, Jr., J. Chem. Phys. 100, 2975 (1994)
  Li-Be, Na : Obtained from the ccRepo (grant-hill.group.shef.ac.uk/ccrepo) Feb. 2017
              B. P. Prascher, D. E. Woon, K. A. Peterson, T. H. Dunning, Jr., A. K. Wilson, Theor. Chem. Acc. 128, 69 (2011)
         Mg : Obtained from the Peterson Research Group Website (tyr0.chem.wsu.edu/~kipeters) Feb. 2017
              B. P. Prascher, D. E. Woon, K. A. Peterson, T. H. Dunning, Jr., A. K. Wilson, Theor. Chem. Acc. 128, 69 (2011)
      Al-Ar : Obtained from the ccRepo (grant-hill.group.shef.ac.uk/ccrepo) Feb. 2017
              D. E. Woon, T. H. Dunning, Jr., J. Chem. Phys. 98, 1358 (1993)
      Sc-Zn : Obtained from the ccRepo (grant-hill.group.shef.ac.uk/ccrepo) Feb. 2017
              N. B. Balabanov, K. A. Peterson, J. Chem. Phys. 123, 064107 (2005)
              N. B. Balabanov, K. A. Peterson, J. Chem. Phys. 125, 074110 (2006)
      Ga-Kr : Obtained from the ccRepo (grant-hill.group.shef.ac.uk/ccrepo) Feb. 2017
              A. K. Wilson, D. E. Woon, K. A. Peterson, T. H. Dunning, Jr., J. Chem. Phys. 110, 7667 (1999)
     Ag, Au : Obtained from the Peterson Research Group Website (tyr0.chem.wsu.edu/~kipeters) Feb. 2017
              K. A. Peterson, C. Puzzarini, Theor. Chem. Acc. 114, 283 (2005)

================================================================================
                                        WARNINGS
                       Please study these warnings very carefully!
================================================================================


WARNING: Geometry Optimization
  ===> : Switching off AutoStart
         For restart on a previous wavefunction, please use MOREAD

INFO   : the flag for use of LIBINT has been found!

================================================================================
                                       INPUT FILE
================================================================================
NAME = orca.inp
|  1> !UKS B3LYP aug-cc-pVTZ OPT
|  2> 
|  3> !veryslowconv
|  4> 
|  5> %scf
|  6> 
|  7> maxiter 1800
|  8> 
|  9> end
| 10> 
| 11> 
| 12> 
| 13> %geom
| 14>   Constraints
| 15>     { B 0 4  C } # Bond constraint on C0--F4
| 16>   end
| 17> end
| 18> 
| 19> *xyz 0 1
| 20> C    -1.923962868    1.371455279    -0.158139983
| 21> H    -1.206351869    2.177670061    -0.100184483
| 22> H    -2.630103173    1.444466499    0.656931721
| 23> H    -2.445202932    1.406501165    -1.104389016
| 24> F    0.262132212    -2.549308607    0.155864550
| 25> **                         ****END OF INPUT****
================================================================================

                       *****************************
                       * Geometry Optimization Run *
                       *****************************

Geometry optimization settings:
Update method            Update   .... BFGS
Choice of coordinates    CoordSys .... Z-matrix Internals
Initial Hessian          InHess   .... Almoef's Model

Convergence Tolerances:
Energy Change            TolE     ....  5.0000e-06 Eh
Max. Gradient            TolMAXG  ....  3.0000e-04 Eh/bohr
RMS Gradient             TolRMSG  ....  1.0000e-04 Eh/bohr
Max. Displacement        TolMAXD  ....  4.0000e-03 bohr
RMS Displacement         TolRMSD  ....  2.0000e-03 bohr
Strict Convergence                ....  False
------------------------------------------------------------------------------
                        ORCA OPTIMIZATION COORDINATE SETUP
------------------------------------------------------------------------------

The optimization will be done in new redundant internal coordinates
Making redundant internal coordinates   ...  (new redundants) done
Evaluating the initial hessian          ...  (Almloef) done
Evaluating the coordinates              ...  done
Calculating the B-matrix                .... done
Calculating the G-matrix                .... done
Diagonalizing the G-matrix              .... done
Imposing constraints:
 Iter   0:  RMS(Cart)=    0.0000000000 RMS(Int)=    0.0000000000
CONVERGED
The first mode is                       ....    4
The number of degrees of freedom        ....    9
Storing new coordinates                 .... done

    -----------------------------------------------------------------
                    Redundant Internal Coordinates


    -----------------------------------------------------------------
         Definition                    Initial Value    Approx d2E/dq
    -----------------------------------------------------------------
      1. B(H   1,C   0)                  1.0809         0.372366   
      2. B(H   2,C   0)                  1.0809         0.372366   
      3. B(H   3,C   0)                  1.0809         0.372366   
      4. B(F   4,H   3)                  4.9564         0.000000   
      5. B(F   4,H   1)                  4.9564         0.000000   
      6. B(F   4,C   0)                  4.5000         0.000006 C 
      7. B(F   4,H   2)                  4.9564         0.000000   
      8. A(H   2,C   0,H   3)          110.0548         0.293923   
      9. A(H   1,C   0,F   4)          108.8812         0.107984   
     10. A(H   2,C   0,F   4)          108.8812         0.107984   
     11. A(H   3,C   0,F   4)          108.8812         0.107984   
     12. A(H   1,C   0,H   2)          110.0548         0.293923   
     13. A(H   1,C   0,H   3)          110.0548         0.293923   
    -----------------------------------------------------------------

Number of atoms                         .... 5
Number of degrees of freedom            .... 13

         *************************************************************
         *                GEOMETRY OPTIMIZATION CYCLE   1            *
         *************************************************************
---------------------------------
CARTESIAN COORDINATES (ANGSTROEM)
---------------------------------
  C     -1.923963    1.371455   -0.158140
  H     -1.206352    2.177670   -0.100184
  H     -2.630103    1.444466    0.656932
  H     -2.445203    1.406501   -1.104389
  F      0.262132   -2.549309    0.155865

----------------------------
CARTESIAN COORDINATES (A.U.)
----------------------------
  NO LB      ZA    FRAG     MASS         X           Y           Z
   0 C     6.0000    0    12.011   -3.635763    2.591675   -0.298841
   1 H     1.0000    0     1.008   -2.279675    4.115200   -0.189321
   2 H     1.0000    0     1.008   -4.970175    2.729646    1.241421
   3 H     1.0000    0     1.008   -4.620764    2.657902   -2.086993
   4 F     9.0000    0    18.998    0.495358   -4.817495    0.294541

--------------------------------
INTERNAL COORDINATES (ANGSTROEM)
--------------------------------
 C      0   0   0     0.000000000000     0.00000000     0.00000000
 H      1   0   0     1.080882352794     0.00000000     0.00000000
 H      1   2   0     1.080882348479   110.05475732     0.00000000
 H      1   2   3     1.080882348314   110.05475684   121.45845560
 F      1   2   3     4.499999999479   108.88118576   240.72922825

---------------------------
INTERNAL COORDINATES (A.U.)
---------------------------
 C      0   0   0     0.000000000000     0.00000000     0.00000000
 H      1   0   0     2.042571629769     0.00000000     0.00000000
 H      1   2   0     2.042571621614   110.05475732     0.00000000
 H      1   2   3     2.042571621304   110.05475684   121.45845560
 F      1   2   3     8.503767601660   108.88118576   240.72922825

---------------------
BASIS SET INFORMATION
---------------------
There are 3 groups of distinct atoms

 Group   1 Type C   : 19s6p3d2f contracted to 5s4p3d2f pattern {88111/3111/111/11}
 Group   2 Type H   : 6s3p2d contracted to 4s3p2d pattern {3111/111/11}
 Group   3 Type F   : 19s6p3d2f contracted to 5s4p3d2f pattern {88111/3111/111/11}

Atom   0C    basis set group =>   1
Atom   1H    basis set group =>   2
Atom   2H    basis set group =>   2
Atom   3H    basis set group =>   2
Atom   4F    basis set group =>   3
------------------------------------------------------------------------------
                           ORCA GTO INTEGRAL CALCULATION
------------------------------------------------------------------------------

                         BASIS SET STATISTICS AND STARTUP INFO

 # of primitive gaussian shells          ...   93
 # of primitive gaussian functions       ...  207
 # of contracted shells                  ...   55
 # of contracted basis functions         ...  161
 Highest angular momentum                ...    3
 Maximum contraction depth               ...    8
 Integral package used                   ... LIBINT
 Integral threshhold            Thresh   ...  2.500e-11
 Primitive cut-off              TCut     ...  2.500e-12


------------------------------ INTEGRAL EVALUATION ----------------------------


 * One electron integrals 
 Pre-screening matrix                    ... done
 Shell pair data                         ... done (   0.000 sec)

-------------------------------------------------------------------------------
                                 ORCA SCF
-------------------------------------------------------------------------------

------------
SCF SETTINGS
------------
Hamiltonian:
 Density Functional     Method          .... DFT(GTOs)
 Exchange Functional    Exchange        .... B88
   X-Alpha parameter    XAlpha          ....  0.666667
   Becke's b parameter  XBeta           ....  0.004200
 Correlation Functional Correlation     .... LYP
 LDA part of GGA corr.  LDAOpt          .... VWN-5
 Gradients option       PostSCFGGA      .... off
 Hybrid DFT is turned on
   Fraction HF Exchange ScalHFX         ....  0.200000
   Scaling of DF-GGA-X  ScalDFX         ....  0.720000
   Scaling of DF-GGA-C  ScalDFC         ....  0.810000
   Scaling of DF-LDA-C  ScalLDAC        ....  1.000000
   Perturbative correction              ....  0.000000
   Density functional embedding theory  .... OFF
   NL short-range parameter             ....  4.800000


General Settings:
 Integral files         IntName         .... orca
 Hartree-Fock type      HFTyp           .... UHF
 Total Charge           Charge          ....    0
 Multiplicity           Mult            ....    1
 Number of Electrons    NEL             ....   18
 Basis Dimension        Dim             ....  161
 Nuclear Repulsion      ENuc            ....     18.9414140925 Eh

Convergence Acceleration:
 DIIS                   CNVDIIS         .... on
   Start iteration      DIISMaxIt       ....     0
   Startup error        DIISStart       ....  0.200000
   # of expansion vecs  DIISMaxEq       ....     5
   Bias factor          DIISBfac        ....   1.050
   Max. coefficient     DIISMaxC        ....  10.000
 Newton-Raphson         CNVNR           .... off
 SOSCF                  CNVSOSCF        .... off
 Level Shifting         CNVShift        .... on
   Level shift para.    LevelShift      ....    0.2500
   Turn off err/grad.   ShiftErr        ....    0.0000
 Zerner damping         CNVZerner       .... off
 Static damping         CNVDamp         .... on
   Fraction old density DampFac         ....    0.9200
   Max. Damping (<1)    DampMax         ....    0.9800
   Min. Damping (>=0)   DampMin         ....    0.0000
   Turn off err/grad.   DampErr         ....    0.0030
 Fernandez-Rico         CNVRico         .... off

SCF Procedure:
 Maximum # iterations   MaxIter         ....  1800
 SCF integral mode      SCFMode         .... Direct
   Integral package                     .... LIBINT
 Reset frequency        DirectResetFreq ....    20
 Integral Threshold     Thresh          ....  2.500e-11 Eh
 Primitive CutOff       TCut            ....  2.500e-12 Eh

Convergence Tolerance:
 Convergence Check Mode ConvCheckMode   .... Total+1el-Energy
 Convergence forced     ConvForced      .... 0
 Energy Change          TolE            ....  1.000e-08 Eh
 1-El. energy change                    ....  1.000e-05 Eh
 DIIS Error             TolErr          ....  5.000e-07


Diagonalization of the overlap matrix:
Smallest eigenvalue                        ... 1.250e-04
Time for diagonalization                   ...    0.097 sec
Threshold for overlap eigenvalues          ... 1.000e-08
Number of eigenvalues below threshold      ... 0
Time for construction of square roots      ...    0.002 sec
Total time needed                          ...    0.099 sec

-------------------
DFT GRID GENERATION
-------------------

General Integration Accuracy     IntAcc      ...  4.340
Radial Grid Type                 RadialGrid  ... Gauss-Chebyshev
Angular Grid (max. acc.)         AngularGrid ... Lebedev-110
Angular grid pruning method      GridPruning ... 3 (G Style)
Weight generation scheme         WeightScheme... Becke
Basis function cutoff            BFCut       ...    1.0000e-11
Integration weight cutoff        WCut        ...    1.0000e-14
Grids for H and He will be reduced by one unit

# of grid points (after initial pruning)     ...   5778 (   0.0 sec)
# of grid points (after weights+screening)   ...   5683 (   0.0 sec)
nearest neighbour list constructed           ...    0.0 sec
Grid point re-assignment to atoms done       ...    0.0 sec
Grid point division into batches done        ...    0.0 sec
Reduced shell lists constructed in    0.0 sec

Total number of grid points                  ...     5683
Total number of batches                      ...       92
Average number of points per batch           ...       61
Average number of grid points per atom       ...     1137
Average number of shells per batch           ...    42.19 (76.72%)
Average number of basis functions per batch  ...   119.16 (74.01%)
Average number of large shells per batch     ...    37.03 (87.77%)
Average number of large basis fcns per batch ...   103.12 (86.54%)
Maximum spatial batch extension              ...  21.59, 23.60, 21.59 au
Average spatial batch extension              ...   5.63,  5.26,  5.02 au

Time for grid setup =    0.046 sec

------------------------------
INITIAL GUESS: MODEL POTENTIAL
------------------------------
Loading Hartree-Fock densities                     ... done
Calculating cut-offs                               ... done
Setting up the integral package                    ... done
Initializing the effective Hamiltonian             ... done
Starting the Coulomb interaction                   ... done (   0.0 sec)
Reading the grid                                   ... done
Mapping shells                                     ... done
Starting the XC term evaluation                    ... done (   0.1 sec)
  promolecular density results
     # of electrons  =     17.998433527
     EX              =    -15.945369549
     EC              =     -0.588667809
     EX+EC           =    -16.534037358
Transforming the Hamiltonian                       ... done (   0.0 sec)
Diagonalizing the Hamiltonian                      ... done (   0.0 sec)
Back transforming the eigenvectors                 ... done (   0.0 sec)
Now organizing SCF variables                       ... done
                      ------------------
                      INITIAL GUESS DONE (   0.2 sec)
                      ------------------
--------------
SCF ITERATIONS
--------------
ITER       Energy         Delta-E        Max-DP      RMS-DP      [F,P]     Damp
               ***  Starting incremental Fock matrix formation  ***
  0   -139.2540432471   0.000000000000 0.01704318  0.00041583  0.4292164 0.9200
  1   -139.3633898527  -0.109346605614 0.01567783  0.00037106  0.2449696 0.9200
                               ***Turning on DIIS***
  2   -139.3760916317  -0.012701779038 0.01436899  0.00031310  0.1046294 0.9200
  3   -139.3343779617   0.041713670010 0.01306125  0.00023605  0.0687409 0.9200
  4   -139.3016533969   0.032724564813 0.01196304  0.00020111  0.1044099 0.9200
  5   -139.2751468220   0.026506574890 0.01099313  0.00018202  0.1498901 0.9200
  6   -139.2482820143   0.026864807716 0.01011134  0.00016754  0.1884024 0.9200
  7   -139.2195277504   0.028754263860 0.00929769  0.00015446  0.2231320 0.9200
  8   -139.1898345432   0.029693207185 0.00855036  0.00014243  0.2520243 0.9200
  9   -139.1597166273   0.030117915952 0.00786314  0.00013116  0.2760808 0.9200
 10   -139.1300402863   0.029676340971 0.00722689  0.00012081  0.2956885 0.9200
 11   -139.1019451831   0.028095103200 0.00623089  0.00011206  0.3102017 0.9200
 12   -139.0794353034   0.022509879764 0.00785127  0.00015650  0.3171007 0.9200
 13   -139.1528853288  -0.073450025493 0.01106681  0.00017251  0.2634499 0.9200
 14   -139.2328009380  -0.079915609155 0.00990337  0.00015731  0.1915600 0.9200
 15   -139.2944783032  -0.061677365177 0.00849685  0.00014122  0.1386069 0.9200
 16   -139.3404168505  -0.045938547367 0.00749526  0.00012801  0.0980863 0.9200
 17   -139.3746058603  -0.034189009728 0.00672188  0.00011682  0.0641880 0.9200
 18   -139.3997981406  -0.025192280320 0.00606834  0.00010700  0.0358261 0.9200
 19   -139.4179612965  -0.018163155862 0.00550574  0.00009821  0.0223201 0.9200
               *** Restarting incremental Fock matrix formation ***
                                   *** Resetting DIIS ***
 20   -139.4306020661  -0.012640769678 0.00516438  0.00009053  0.0277290 0.9200
 21   -139.4388312883  -0.008229222183 0.00463603  0.00008315  0.0433693 0.9200
 22   -139.4435763445  -0.004745056225 0.00424243  0.00007645  0.0612297 0.9200
 23   -139.4455911040  -0.002014759423 0.00390474  0.00007034  0.0776225 0.9200
 24   -139.4454497570   0.000141346973 0.00359313  0.00006473  0.0928826 0.9200
 25   -139.4436328698   0.001816887190 0.00329891  0.00005956  0.1070552 0.9200
 26   -139.4405546322   0.003078237607 0.00300127  0.00005480  0.1200794 0.9200
 27   -139.4366147677   0.003939864468 0.00276391  0.00005041  0.1321006 0.9200
 28   -139.4319872093   0.004627558476 0.00249867  0.00004639  0.1434423 0.9200
 29   -139.4270331837   0.004954025527 0.00222201  0.00004276  0.1532821 0.9200
 30   -139.4220477017   0.004985481996 0.00194002  0.00003966  0.1613151 0.9200
 31   -139.4172950666   0.004752635130 0.00180910  0.00003733  0.1672405 0.9200
 32   -139.4130234569   0.004271609711 0.00184926  0.00003637  0.1706870 0.9200
 33   -139.4095048766   0.003518580301 0.00196452  0.00003821  0.1709479 0.9200
 34   -139.4070896233   0.002415253322 0.00214313  0.00004700  0.1667728 0.9200
 35   -139.4064335547   0.000656068521 0.00357269  0.00011428  0.1556353 0.9200
 36   -139.4179042993  -0.011470744509 0.00712467  0.00019360  0.1219713 0.9200
 37   -139.4445819636  -0.026677664369 0.00706911  0.00018872  0.0678618 0.9200
 38   -139.4615625325  -0.016980568836 0.00644275  0.00017563  0.0220093 0.9200
 39   -139.4681070304  -0.006544497901 0.00592497  0.00016287  0.0223139 0.9200
               *** Restarting incremental Fock matrix formation ***
                                   *** Resetting DIIS ***
 40   -139.4659933024   0.002113727998 0.00371423  0.00012867  0.0596715 0.9200
 41   -139.4610919920   0.004901310364 0.00325667  0.00011294  0.0779985 0.9200
 42   -139.4544238588   0.006668133244 0.00310071  0.00010342  0.0954852 0.9200
 43   -139.4460737153   0.008350143487 0.00294251  0.00009535  0.1126765 0.9200
 44   -139.4364583520   0.009615363312 0.00277101  0.00008779  0.1288933 0.9200
 45   -139.4260215373   0.010436814612 0.00225666  0.00007419  0.1438686 0.9200
 46   -139.4180030303   0.008018507036 0.00226644  0.00005809  0.1531500 0.9200
 47   -139.4157683260   0.002234704353 0.00200204  0.00005109  0.1536830 0.9200
 48   -139.4221549210  -0.006386595070 0.00321839  0.00007106  0.1420340 0.9200
 49   -139.4370559186  -0.014900997566 0.00420396  0.00008816  0.1148190 0.9200
 50   -139.4526625589  -0.015606640357 0.00366332  0.00008296  0.0864356 0.9200
 51   -139.4640534970  -0.011390938063 0.00329122  0.00007718  0.0660411 0.9200
 52   -139.4721104416  -0.008056944541 0.00300124  0.00007111  0.0476080 0.9200
 53   -139.4775104908  -0.005400049280 0.00272466  0.00006482  0.0310823 0.9200
 54   -139.4807987270  -0.003288236200 0.00245979  0.00005859  0.0164231 0.9200
 55   -139.4824637064  -0.001664979333 0.00221911  0.00005275  0.0079287 0.9200
 56   -139.4829199426  -0.000456236199 0.00200799  0.00004751  0.0199889 0.9200
 57   -139.4824918507   0.000428091893 0.00181895  0.00004282  0.0315320 0.9200
 58   -139.4814288270   0.001063023694 0.00164779  0.00003862  0.0419229 0.9200
 59   -139.4799244090   0.001504417927 0.00149189  0.00003484  0.0512794 0.9200
               *** Restarting incremental Fock matrix formation ***
                                   *** Resetting DIIS ***
 60   -139.4781293227   0.001795086324 0.00123084  0.00004091  0.0596967 0.9200
 61   -139.4798825841  -0.001753261390 0.00204170  0.00006662  0.0474077 0.9200
 62   -139.4832513235  -0.003368739422 0.00197945  0.00006418  0.0286040 0.9200
 63   -139.4855646174  -0.002313293857 0.00171833  0.00005772  0.0174215 0.9200
 64   -139.4868634820  -0.001298864620 0.00146492  0.00005091  0.0070632 0.9200
 65   -139.4874598597  -0.000596377735 0.00125532  0.00004492  0.0076109 0.9200
 66   -139.4876004584  -0.000140598678 0.00108027  0.00003975  0.0157506 0.9200
 67   -139.4874537333   0.000146725112 0.00093439  0.00003504  0.0226916 0.9200
 68   -139.4871462334   0.000307499902 0.00084349  0.00003075  0.0285300 0.9200
 69   -139.4867715342   0.000374699165 0.00075710  0.00002666  0.0333760 0.9200
 70   -139.4864122974   0.000359236825 0.00066987  0.00002240  0.0372174 0.9200
 71   -139.4861657192   0.000246578176 0.00057447  0.00001784  0.0403018 0.9200
 72   -139.4861465502   0.000019169002 0.00046300  0.00001350  0.0427092 0.9200
 73   -139.4864798153  -0.000333265017 0.00050176  0.00001296  0.0430737 0.9200
 74   -139.4873095149  -0.000829699598 0.00145457  0.00003141  0.0404254 0.9200
 75   -139.4889832823  -0.001673767477 0.00126641  0.00002993  0.0304809 0.9200
 76   -139.4901846274  -0.001201345015 0.00111820  0.00002742  0.0215484 0.9200
 77   -139.4909860682  -0.000801440816 0.00100175  0.00002452  0.0136612 0.9200
 78   -139.4914843868  -0.000498318605 0.00089430  0.00002160  0.0067582 0.9200
 79   -139.4917628637  -0.000278476973 0.00079624  0.00001891  0.0032865 0.9200
               *** Restarting incremental Fock matrix formation ***
                                   *** Resetting DIIS ***
 80   -139.4918898407  -0.000126976927 0.00051245  0.00001289  0.0073316 0.9200
 81   -139.4919834820  -0.000093641282 0.00044672  0.00001053  0.0092104 0.9200
 82   -139.4920558193  -0.000072337360 0.00040769  0.00000924  0.0108957 0.9200
 83   -139.4921084845  -0.000052665189 0.00037069  0.00000828  0.0124822 0.9200
 84   -139.4921465973  -0.000038112815 0.00033576  0.00000748  0.0139222 0.9200
 85   -139.4921747684  -0.000028171062 0.00028097  0.00000650  0.0153008 0.9200
 86   -139.4922102822  -0.000035513789 0.00020408  0.00000551  0.0165547 0.9200
 87   -139.4922747132  -0.000064431004 0.00021093  0.00000536  0.0172848 0.9200
 88   -139.4924021379  -0.000127424712 0.00034164  0.00001012  0.0171547 0.9200
 89   -139.4926716855  -0.000269547592 0.00053122  0.00001601  0.0149864 0.9200
 90   -139.4930044019  -0.000332716459 0.00050178  0.00001550  0.0110229 0.9200
 91   -139.4932518718  -0.000247469867 0.00044391  0.00001412  0.0075079 0.9200
 92   -139.4934253599  -0.000173488055 0.00038375  0.00001256  0.0048454 0.9200
 93   -139.4935438553  -0.000118495466 0.00409303  0.00013846  0.0025106 0.0000
 94   -139.4927632670   0.000780588276 0.00003066  0.00000068  0.0299957 0.9200
 95   -139.4927838113  -0.000020544252 0.00005529  0.00000123  0.0298214 0.9200
 96   -139.4928207734  -0.000036962059 0.00007522  0.00000168  0.0295056 0.9200
 97   -139.4928709109  -0.000050137493 0.00009109  0.00000204  0.0290723 0.9200
 98   -139.4929312891  -0.000060378198 0.00090859  0.00002305  0.0285430 0.9200
 99   -139.4935698600  -0.000638570919 0.00079474  0.00002217  0.0214655 0.9200
               *** Restarting incremental Fock matrix formation ***
                                   *** Resetting DIIS ***
100   -139.4940021842  -0.000432324214 0.00102994  0.00002912  0.0151932 0.9200
101   -139.4942988082  -0.000296624026 0.00087974  0.00002532  0.0070136 0.9200
102   -139.4943527756  -0.000053967359 0.00074519  0.00002166  0.0047235 0.9200
103   -139.4942613609   0.000091414692 0.00063508  0.00001855  0.0092925 0.9200
104   -139.4940867433   0.000174617532 0.00054323  0.00001589  0.0130848 0.9200
105   -139.4938696493   0.000217094022 0.00047845  0.00001362  0.0162575 0.9200
106   -139.4936370247   0.000232624582 0.00042111  0.00001167  0.0189059 0.9200
107   -139.4934065595   0.000230465220 0.00036564  0.00000990  0.0211098 0.9200
108   -139.4931930164   0.000213543138 0.00030368  0.00000809  0.0228833 0.9200
109   -139.4930150395   0.000177976913 0.00022432  0.00000601  0.0241587 0.9200
110   -139.4929008214   0.000114218032 0.00015155  0.00000391  0.0247574 0.9200
111   -139.4928938329   0.000006988558 0.00025619  0.00000573  0.0243266 0.9200
112   -139.4930658768  -0.000172043906 0.00063027  0.00001685  0.0225844 0.9200
113   -139.4935368358  -0.000470959047 0.00069315  0.00001874  0.0181743 0.9200
114   -139.4939298725  -0.000393036655 0.00063803  0.00001767  0.0137267 0.9200
115   -139.4941899772  -0.000260104705 0.00056073  0.00001583  0.0096258 0.9200
116   -139.4943417714  -0.000151794218 0.00048248  0.00001385  0.0059775 0.9200
117   -139.4944157476  -0.000073976216 0.00512843  0.00015006  0.0028005 0.0000
118   -139.4918776526   0.002538095044 0.00003324  0.00000084  0.0352576 0.9200
119   -139.4919118690  -0.000034216374 0.00005978  0.00000151  0.0350373 0.9200
               *** Restarting incremental Fock matrix formation ***
                                   *** Resetting DIIS ***
120   -139.4919731877  -0.000061318733 0.00112117  0.00003129  0.0346392 0.9200
121   -139.4930724926  -0.001099304959 0.00119614  0.00003349  0.0255090 0.9200
122   -139.4938563212  -0.000783828595 0.00106658  0.00003034  0.0164468 0.9200
123   -139.4942540272  -0.000397705926 0.00092599  0.00002653  0.0087714 0.9200
124   -139.4943833830  -0.000129355845 0.00079424  0.00002283  0.0032443 0.9200
125   -139.4943401549   0.000043228127 0.00068266  0.00001967  0.0080204 0.9200
126   -139.4941915465   0.000148608415 0.00058573  0.00001694  0.0120567 0.9200
127   -139.4939834662   0.000208080243 0.00050102  0.00001457  0.0154750 0.9200
128   -139.4937477175   0.000235748700 0.00042695  0.00001251  0.0183626 0.9200
129   -139.4935059932   0.000241724306 0.00036058  0.00001068  0.0207897 0.9200
130   -139.4932742994   0.000231693867 0.00029543  0.00000888  0.0227911 0.9200
131   -139.4930703279   0.000203971485 0.00023115  0.00000687  0.0243284 0.9200
132   -139.4929194784   0.000150849469 0.00016205  0.00000457  0.0252667 0.9200
133   -139.4928604774   0.000059001024 0.00017080  0.00000398  0.0253310 0.9200
134   -139.4929544880  -0.000094010622 0.00045998  0.00001116  0.0248181 0.9200
135   -139.4933104295  -0.000355941468 0.00074485  0.00001997  0.0220542 0.9200
136   -139.4938151578  -0.000504728318 0.00071002  0.00001950  0.0169736 0.9200
137   -139.4941663552  -0.000351197439 0.00062913  0.00001765  0.0121760 0.9200
138   -139.4943794667  -0.000213111496 0.00054339  0.00001549  0.0078808 0.9200
139   -139.4944907592  -0.000111292432 0.00046254  0.00001340  0.0041267 0.9200
               *** Restarting incremental Fock matrix formation ***
                                   *** Resetting DIIS ***
140   -139.4945333269  -0.000042567744 0.00494584  0.00014325  0.0018166 0.0000
141   -139.4920067770   0.002526549926 0.00003177  0.00000090  0.0352159 0.9200
142   -139.4920448206  -0.000038043655 0.00005755  0.00000162  0.0349734 0.9200
143   -139.4921129751  -0.000068154466 0.00007830  0.00000220  0.0345344 0.9200
144   -139.4922042591  -0.000091283976 0.00009477  0.00000266  0.0339372 0.9200
145   -139.4923125967  -0.000108337588 0.00099866  0.00002760  0.0332145 0.9200
146   -139.4932781116  -0.000965514991 0.00096295  0.00002671  0.0248794 0.9200
147   -139.4939425459  -0.000664434272 0.00087261  0.00002459  0.0174323 0.9200
148   -139.4943453823  -0.000402836377 0.00077281  0.00002195  0.0109327 0.9200
149   -139.4945521138  -0.000206731497 0.00067197  0.00001918  0.0058778 0.9200
150   -139.4946204178  -0.000068304049 0.00722076  0.00020723  0.0024481 0.0000
151   -139.4887859481   0.005834469710 0.00003612  0.00000103  0.0490685 0.9200
152   -139.4888454768  -0.000059528702 0.00006426  0.00000184  0.0488573 0.9200
153   -139.4889509178  -0.000105440922 0.00008683  0.00000248  0.0484796 0.9200
154   -139.4890923400  -0.000141422210 0.00010520  0.00000301  0.0479655 0.9200
155   -139.4892620562  -0.000169716224 0.00190366  0.00004895  0.0473370 0.9200
156   -139.4917728198  -0.002510763629 0.00173111  0.00004545  0.0340044 0.9200
157   -139.4933054235  -0.001532603713 0.00149954  0.00004037  0.0220734 0.9200
158   -139.4940699220  -0.000764498446 0.00128335  0.00003500  0.0115477 0.9200
159   -139.4943106643  -0.000240742358 0.00109091  0.00003004  0.0034190 0.9200
               *** Restarting incremental Fock matrix formation ***
                                   *** Resetting DIIS ***
160   -139.4942165538   0.000094110576 0.00064393  0.00001949  0.0098594 0.9200
161   -139.4940606889   0.000155864829 0.00049680  0.00001502  0.0127918 0.9200
162   -139.4938895277   0.000171161232 0.00040483  0.00001229  0.0152309 0.9200
163   -139.4937159970   0.000173530677 0.00033729  0.00001027  0.0172996 0.9200
164   -139.4935516900   0.000164306985 0.00028675  0.00000863  0.0195289 0.9200
165   -139.4934039437   0.000147746362 0.00021000  0.00000660  0.0216225 0.9200
166   -139.4933033877   0.000100555946 0.00013221  0.00000422  0.0230868 0.9200
167   -139.4932861554   0.000017232293 0.00016487  0.00000359  0.0236672 0.9200
168   -139.4933963144  -0.000110158960 0.00036070  0.00000971  0.0229486 0.9200
169   -139.4936956839  -0.000299369455 0.00058602  0.00001554  0.0199591 0.9200
170   -139.4940582540  -0.000362570125 0.00056765  0.00001543  0.0153445 0.9200
171   -139.4943233493  -0.000265095304 0.00051636  0.00001427  0.0110078 0.9200
172   -139.4944980304  -0.000174681103 0.00045723  0.00001278  0.0071142 0.9200
173   -139.4946018784  -0.000103847977 0.00039756  0.00001124  0.0040685 0.9200
174   -139.4946546409  -0.000052762576 0.00427196  0.00012245  0.0017193 0.0000
175   -139.4929605340   0.001694106892 0.00002455  0.00000063  0.0303423 0.9200
176   -139.4929818624  -0.000021328335 0.00004407  0.00000114  0.0301950 0.9200
177   -139.4930200265  -0.000038164129 0.00005968  0.00000155  0.0299289 0.9200
178   -139.4930713405  -0.000051313976 0.00007202  0.00000187  0.0295662 0.9200
179   -139.4931326439  -0.000061303417 0.00109865  0.00002700  0.0291251 0.9200
               *** Restarting incremental Fock matrix formation ***
                                   *** Resetting DIIS ***
180   -139.4939327853  -0.000800141403 0.00159642  0.00004088  0.0212435 0.9200
181   -139.4945696372  -0.000636851923 0.00132999  0.00003527  0.0091536 0.9200
182   -139.4946596428  -0.000090005571 0.00110552  0.00002989  0.0062810 0.9200
183   -139.4944256554   0.000233987425 0.00092977  0.00002537  0.0129486 0.9200
184   -139.4940133637   0.000412291635 0.00078134  0.00002149  0.0185202 0.9200
185   -139.4935166883   0.000496675413 0.00065361  0.00001813  0.0231240 0.9200
186   -139.4929983961   0.000518292220 0.00054102  0.00001518  0.0277979 0.9200
187   -139.4925009937   0.000497402400 0.00043022  0.00001222  0.0321185 0.9200
188   -139.4920718698   0.000429123888 0.00030069  0.00000892  0.0355398 0.9200
189   -139.4917689758   0.000302893994 0.00016764  0.00000513  0.0378907 0.9200
190   -139.4916682500   0.000100725850 0.00019590  0.00000450  0.0388313 0.9200
191   -139.4918736518  -0.000205401840 0.00057487  0.00001478  0.0377008 0.9200
192   -139.4925429582  -0.000669306416 0.00089580  0.00002395  0.0328699 0.9200
193   -139.4933735902  -0.000830632005 0.00086831  0.00002373  0.0253746 0.9200
194   -139.4939735270  -0.000599936723 0.00079152  0.00002191  0.0183720 0.9200
195   -139.4943606564  -0.000387129483 0.00070220  0.00001955  0.0121108 0.9200
196   -139.4945808397  -0.000220183282 0.00061089  0.00001707  0.0066364 0.9200
197   -139.4946804742  -0.000099634489 0.00655551  0.00018390  0.0023759 0.0000
198   -139.4903217380   0.004358736222 0.00003670  0.00000098  0.0462825 0.9200
199   -139.4903730153  -0.000051277326 0.00006640  0.00000177  0.0460544 0.9200
               *** Restarting incremental Fock matrix formation ***
                                   *** Resetting DIIS ***
200   -139.4904653355  -0.000092320139 0.00192424  0.00004636  0.0456394 0.9200
201   -139.4925760221  -0.002110686617 0.00186265  0.00004810  0.0320595 0.9200
202   -139.4939231656  -0.001347143524 0.00159144  0.00004250  0.0182333 0.9200
203   -139.4944406191  -0.000517453517 0.00134462  0.00003649  0.0062128 0.9200
204   -139.4944206127   0.000020006407 0.00114048  0.00003122  0.0090032 0.9200
205   -139.4940767692   0.000343843555 0.00096953  0.00002668  0.0158574 0.9200
206   -139.4935526065   0.000524162621 0.00082639  0.00002272  0.0216323 0.9200
207   -139.4929461369   0.000606469656 0.00070140  0.00001927  0.0273380 0.9200
208   -139.4923231141   0.000623022773 0.00057960  0.00001600  0.0329414 0.9200
209   -139.4917411599   0.000581954183 0.00044625  0.00001259  0.0375747 0.9200
210   -139.4912630024   0.000478157519 0.00028396  0.00000870  0.0411342 0.9200
211   -139.4909659747   0.000297027684 0.00014487  0.00000450  0.0433743 0.9200
212   -139.4909502678   0.000015706930 0.00026833  0.00000711  0.0438349 0.9200
213   -139.4913572326  -0.000406964811 0.00091450  0.00002214  0.0415676 0.9200
214   -139.4923803880  -0.001023155429 0.00096739  0.00002582  0.0341412 0.9200
215   -139.4932823899  -0.000902001892 0.00091473  0.00002494  0.0260118 0.9200
216   -139.4939165335  -0.000634143626 0.00082881  0.00002280  0.0185297 0.9200
217   -139.4943184331  -0.000401899543 0.00073251  0.00002023  0.0118684 0.9200
218   -139.4945408633  -0.000222430169 0.00063588  0.00001760  0.0060651 0.9200
219   -139.4946354718  -0.000094608494 0.00682283  0.00018913  0.0015947 0.0000
               *** Restarting incremental Fock matrix formation ***
                                   *** Resetting DIIS ***
220   -139.4898110505   0.004824421286 0.00206659  0.00004856  0.0497987 0.9200
221   -139.4921994795  -0.002388429049 0.00204211  0.00005113  0.0353743 0.9200
222   -139.4937712114  -0.001571731866 0.00172698  0.00004535  0.0204307 0.9200
223   -139.4943983693  -0.000627157874 0.00146389  0.00003902  0.0073863 0.9200
224   -139.4944065241  -0.000008154861 0.00124666  0.00003332  0.0092457 0.9200
225   -139.4940410372   0.000365486871 0.00106355  0.00002845  0.0164338 0.9200
226   -139.4934671356   0.000573901609 0.00090366  0.00002421  0.0225443 0.9200
227   -139.4927974774   0.000669658216 0.00076279  0.00002047  0.0290578 0.9200
228   -139.4921090298   0.000688447638 0.00063253  0.00001707  0.0351191 0.9200
229   -139.4914599798   0.000649049992 0.00048916  0.00001351  0.0401615 0.9200
230   -139.4909206026   0.000539377229 0.00031454  0.00000944  0.0440677 0.9200
231   -139.4905771181   0.000343484473 0.00015790  0.00000493  0.0465728 0.9200
232   -139.4905405533   0.000036564834 0.00027291  0.00000696  0.0471894 0.9200
233   -139.4909633419  -0.000422788684 0.00094524  0.00002204  0.0449460 0.9200
234   -139.4920582491  -0.001094907172 0.00105666  0.00002687  0.0373712 0.9200
235   -139.4930719789  -0.001013729818 0.00096096  0.00002614  0.0286835 0.9200
236   -139.4937938728  -0.000721893892 0.00087356  0.00002398  0.0206458 0.9200
237   -139.4942576818  -0.000463809029 0.00077400  0.00002132  0.0134738 0.9200
238   -139.4945200527  -0.000262370808 0.00067311  0.00001856  0.0072158 0.9200
239   -139.4946376071  -0.000117554492 0.00722874  0.00019941  0.0018884 0.0000
               *** Restarting incremental Fock matrix formation ***
                                   *** Resetting DIIS ***
240   -139.4893375941   0.005300013075 0.00222544  0.00005112  0.0528575 0.9200
241   -139.4919707646  -0.002633170554 0.00220545  0.00005372  0.0374801 0.9200
242   -139.4936961540  -0.001725389419 0.00186844  0.00004762  0.0215581 0.9200
243   -139.4943795060  -0.000683351983 0.00158336  0.00004096  0.0076558 0.9200
244   -139.4943811452  -0.000001639168 0.00134689  0.00003498  0.0098343 0.9200
245   -139.4939717977   0.000409347448 0.00114718  0.00002986  0.0174536 0.9200
246   -139.4933337246   0.000638073197 0.00097284  0.00002539  0.0237960 0.9200
247   -139.4925912119   0.000742512609 0.00081936  0.00002147  0.0312169 0.9200
248   -139.4918291266   0.000762085334 0.00067711  0.00001788  0.0376845 0.9200
249   -139.4911123117   0.000716814957 0.00052043  0.00001411  0.0430596 0.9200
250   -139.4905194092   0.000592902438 0.00032952  0.00000979  0.0472105 0.9200
251   -139.4901468452   0.000372564007 0.00015892  0.00000502  0.0498469 0.9200
252   -139.4901183095   0.000028535745 0.00031311  0.00000754  0.0504379 0.9200
253   -139.4906030746  -0.000484765100 0.00104902  0.00002373  0.0479239 0.9200
254   -139.4918313122  -0.001228237603 0.00114601  0.00002824  0.0396203 0.9200
255   -139.4929384762  -0.001107163992 0.00103567  0.00002737  0.0303464 0.9200
256   -139.4937231799  -0.000784703757 0.00092109  0.00002508  0.0217944 0.9200
257   -139.4942254957  -0.000502315752 0.00080956  0.00002227  0.0141746 0.9200
258   -139.4945080109  -0.000282515248 0.00070396  0.00001937  0.0075327 0.9200
259   -139.4946328048  -0.000124793911 0.00756098  0.00020794  0.0018394 0.0000
               *** Restarting incremental Fock matrix formation ***
                                   *** Resetting DIIS ***
260   -139.4888008392   0.005831965660 0.00238744  0.00005382  0.0559459 0.9200
261   -139.4917048369  -0.002903997720 0.00237127  0.00005647  0.0396037 0.9200
262   -139.4935996343  -0.001894797403 0.00201234  0.00005004  0.0226900 0.9200
263   -139.4943443668  -0.000744732548 0.00170542  0.00004304  0.0079141 0.9200
264   -139.4943375405   0.000006826373 0.00145545  0.00003688  0.0105118 0.9200
265   -139.4938746547   0.000462885787 0.00124179  0.00003157  0.0186357 0.9200
266   -139.4931549623   0.000719692419 0.00105546  0.00002693  0.0254532 0.9200
267   -139.4923149961   0.000839966155 0.00089298  0.00002288  0.0336611 0.9200
268   -139.4914466908   0.000868305289 0.00073480  0.00001903  0.0406706 0.9200
269   -139.4906317349   0.000814955913 0.00056182  0.00001498  0.0464858 0.9200
270   -139.4899596303   0.000672104572 0.00035217  0.00001034  0.0509664 0.9200
271   -139.4895397817   0.000419848649 0.00016372  0.00000525  0.0537990 0.9200
272   -139.4895114227   0.000028359013 0.00035001  0.00000810  0.0544127 0.9200
273   -139.4900663965  -0.000554973852 0.00115113  0.00002540  0.0516538 0.9200
274   -139.4914597486  -0.001393352071 0.00124981  0.00002996  0.0426265 0.9200
275   -139.4927037375  -0.001243988912 0.00113231  0.00002901  0.0326437 0.9200
276   -139.4935845238  -0.000880786271 0.00100956  0.00002658  0.0234525 0.9200
277   -139.4941483282  -0.000563804469 0.00088354  0.00002361  0.0152685 0.9200
278   -139.4944653281  -0.000316999859 0.00075878  0.00002053  0.0081381 0.9200
279   -139.4946050502  -0.000139722138 0.00804017  0.00022024  0.0020283 0.0000
               *** Restarting incremental Fock matrix formation ***
                                   *** Resetting DIIS ***
280   -139.4880277289   0.006577321307 0.00258636  0.00005742  0.0597084 0.9200
281   -139.4913120930  -0.003284364051 0.00257177  0.00006009  0.0421779 0.9200
282   -139.4934426639  -0.002130570961 0.00218590  0.00005323  0.0240471 0.9200
283   -139.4942714643  -0.000828800336 0.00185290  0.00004578  0.0081962 0.9200
284   -139.4942506954   0.000020768868 0.00158086  0.00003925  0.0114003 0.9200
285   -139.4937145208   0.000536174617 0.00134784  0.00003360  0.0201337 0.9200
286   -139.4928884335   0.000826087296 0.00114449  0.00002867  0.0276708 0.9200
287   -139.4919271611   0.000961272388 0.00096717  0.00002436  0.0365116 0.9200
288   -139.4909349276   0.000992233481 0.00079377  0.00002024  0.0440672 0.9200
289   -139.4900058555   0.000929072149 0.00060334  0.00001588  0.0503324 0.9200
290   -139.4892438482   0.000762007258 0.00037192  0.00001088  0.0551442 0.9200
291   -139.4887758142   0.000468034050 0.00016603  0.00000546  0.0581516 0.9200
292   -139.4887623256   0.000013488540 0.00040491  0.00000903  0.0587223 0.9200
293   -139.4894233110  -0.000660985357 0.00129020  0.00002790  0.0555777 0.9200
294   -139.4910387455  -0.001615434559 0.00136360  0.00003202  0.0455414 0.9200
295   -139.4924384110  -0.001399665499 0.00123464  0.00003088  0.0347641 0.9200
296   -139.4934232368  -0.000984825769 0.00110194  0.00002824  0.0248833 0.9200
297   -139.4940504148  -0.000627177943 0.00096561  0.00002507  0.0161020 0.9200
298   -139.4944001181  -0.000349703382 0.00083066  0.00002179  0.0084610 0.9200
299   -139.4945509808  -0.000150862643 0.00882225  0.00023362  0.0019198 0.0000
               *** Restarting incremental Fock matrix formation ***
                                   *** Resetting DIIS ***
300   -139.4870589541   0.007492026714 0.00281069  0.00006164  0.0638811 0.9200
301   -139.4908158322  -0.003756878148 0.00279593  0.00006431  0.0450201 0.9200
302   -139.4932366212  -0.002420788953 0.00238018  0.00005694  0.0255303 0.9200
303   -139.4941671984  -0.000930577235 0.00201858  0.00004899  0.0084749 0.9200
304   -139.4941262775   0.000040920919 0.00172237  0.00004202  0.0124754 0.9200
305   -139.4934958226   0.000630454846 0.00146805  0.00003599  0.0219097 0.9200
306   -139.4925339107   0.000961911949 0.00124591  0.00003072  0.0302206 0.9200
307   -139.4914179845   0.001115926165 0.00105211  0.00002611  0.0397858 0.9200
308   -139.4902676892   0.001150295364 0.00086150  0.00002168  0.0479701 0.9200
309   -139.4891931921   0.001074497030 0.00065095  0.00001696  0.0547548 0.9200
310   -139.4883171769   0.000876015242 0.00039413  0.00001153  0.0599485 0.9200
311   -139.4877893600   0.000527816901 0.00017387  0.00000574  0.0631545 0.9200
312   -139.4877978766  -0.000008516641 0.00047043  0.00001019  0.0636657 0.9200
313   -139.4885983788  -0.000800502169 0.00145272  0.00003090  0.0600549 0.9200
314   -139.4904978466  -0.001899467831 0.00149387  0.00003451  0.0488288 0.9200
315   -139.4920941941  -0.001596347497 0.00135031  0.00003312  0.0371243 0.9200
316   -139.4932091954  -0.001115001294 0.00120573  0.00003025  0.0264455 0.9200
317   -139.4939147670  -0.000705571575 0.00105747  0.00002682  0.0169759 0.9200
318   -139.4943040243  -0.000389257263 0.00091089  0.00002330  0.0087486 0.9200
319   -139.4944672403  -0.000163215996 0.00969354  0.00024979  0.0020855 0.0000
               *** Restarting incremental Fock matrix formation ***
                                   *** Resetting DIIS ***
320   -139.4857855833   0.008681656953 0.00307651  0.00006680  0.0687175 0.9200
321   -139.4901617444  -0.004376161129 0.00305883  0.00006943  0.0482946 0.9200
322   -139.4929584358  -0.002796691346 0.00260833  0.00006145  0.0272171 0.9200
323   -139.4940182051  -0.001059769292 0.00221381  0.00005289  0.0087500 0.9200
324   -139.4939466862   0.000071518830 0.00188982  0.00004540  0.0138161 0.9200
325   -139.4931881383   0.000758547931 0.00161090  0.00003891  0.0240968 0.9200
326   -139.4920432909   0.001144847437 0.00136695  0.00003323  0.0332933 0.9200
327   -139.4907194821   0.001323808799 0.00115395  0.00002826  0.0437255 0.9200
328   -139.4893567600   0.001362722044 0.00094284  0.00002345  0.0526660 0.9200
329   -139.4880871540   0.001269606025 0.00070789  0.00001829  0.0600775 0.9200
330   -139.4870592285   0.001027925517 0.00041988  0.00001232  0.0657313 0.9200
331   -139.4864541173   0.000605111178 0.00019111  0.00000613  0.0691710 0.9200
332   -139.4864975586  -0.000043441257 0.00055331  0.00001172  0.0695953 0.9200
333   -139.4874929906  -0.000995432083 0.00165227  0.00003466  0.0653893 0.9200
334   -139.4897751052  -0.002282114547 0.00165047  0.00003763  0.0526915 0.9200
335   -139.4916321361  -0.001857030945 0.00148766  0.00003594  0.0398551 0.9200
336   -139.4929177049  -0.001285568794 0.00132827  0.00003276  0.0282106 0.9200
337   -139.4937245668  -0.000806861869 0.00116556  0.00002902  0.0179128 0.9200
338   -139.4941634630  -0.000438896216 0.00100509  0.00002520  0.0089821 0.9200
339   -139.4943402934  -0.000176830370 0.01071620  0.00027014  0.0027353 0.0000
               *** Restarting incremental Fock matrix formation ***
                                   *** Resetting DIIS ***
340   -139.4840233494   0.010316943963 0.00340797  0.00007342  0.0745709 0.9200
341   -139.4892583805  -0.005235031072 0.00338293  0.00007594  0.0522280 0.9200
342   -139.4925688360  -0.003310455531 0.00289031  0.00006718  0.0292114 0.9200
343   -139.4938009537  -0.001232117668 0.00245616  0.00005786  0.0090141 0.9200
344   -139.4936802136   0.000120740077 0.00209866  0.00004972  0.0155701 0.9200
345   -139.4927365560   0.000943657632 0.00178993  0.00004266  0.0269251 0.9200
346   -139.4913297214   0.001406834579 0.00151938  0.00003647  0.0371805 0.9200
347   -139.4897086969   0.001621024508 0.00128282  0.00003105  0.0487028 0.9200
348   -139.4880421661   0.001666530808 0.00104601  0.00002575  0.0586007 0.9200
349   -139.4864939079   0.001548258146 0.00077981  0.00002002  0.0668092 0.9200
350   -139.4852505960   0.001243311919 0.00045127  0.00001336  0.0730476 0.9200
351   -139.4845396390   0.000710957025 0.00021577  0.00000670  0.0767787 0.9200
352   -139.4846415479  -0.000101908914 0.00066413  0.00001381  0.0770743 0.9200
353   -139.4859274301  -0.001285882144 0.00190882  0.00003959  0.0720697 0.9200
354   -139.4887551227  -0.002827692687 0.00184888  0.00004173  0.0574721 0.9200
355   -139.4909785841  -0.002223461359 0.00165994  0.00003962  0.0431873 0.9200
356   -139.4925014204  -0.001522836277 0.00148135  0.00003604  0.0303174 0.9200
357   -139.4934473380  -0.000945917663 0.00130033  0.00003191  0.0189738 0.9200
358   -139.4939523856  -0.000505047525 0.00112250  0.00002770  0.0091576 0.9200
359   -139.4941446248  -0.000192239251 0.00095942  0.00002376  0.0036664 0.9200
               *** Restarting incremental Fock matrix formation ***
                                   *** Resetting DIIS ***
360   -139.4941305861   0.000014038676 0.00056124  0.00001565  0.0089162 0.9200
361   -139.4940727437   0.000057842451 0.00045019  0.00001206  0.0112787 0.9200
362   -139.4939947534   0.000077990342 0.00038451  0.00001000  0.0140582 0.9200
363   -139.4939026024   0.000092150985 0.00033093  0.00000853  0.0169991 0.9200
364   -139.4938037718   0.000098830536 0.00028577  0.00000737  0.0195403 0.9200
365   -139.4937038610   0.000099910800 0.00022631  0.00000594  0.0217482 0.9200
366   -139.4936227781   0.000081082928 0.00014969  0.00000418  0.0234950 0.9200
367   -139.4935853760   0.000037402076 0.00008641  0.00000274  0.0246129 0.9200
368   -139.4936231546  -0.000037778596 0.00020588  0.00000518  0.0248418 0.9200
369   -139.4937826297  -0.000159475084 0.00092824  0.00002015  0.0236347 0.9200
370   -139.4942461339  -0.000463504219 0.00082611  0.00001935  0.0173728 0.9200
371   -139.4945595309  -0.000313397012 0.00071314  0.00001733  0.0116658 0.9200
372   -139.4947441308  -0.000184599848 0.00061218  0.00001505  0.0066555 0.9200
373   -139.4948381796  -0.000094048852 0.00650618  0.00016109  0.0023252 0.0000
374   -139.4920612728   0.002776906867 0.00003557  0.00000087  0.0463864 0.9200
375   -139.4921023929  -0.000041120111 0.00006436  0.00000156  0.0460894 0.9200
376   -139.4921757528  -0.000073359894 0.00008781  0.00000212  0.0455546 0.9200
377   -139.4922741147  -0.000098361910 0.00010673  0.00000257  0.0448277 0.9200
378   -139.4923912598  -0.000117145074 0.00143374  0.00003022  0.0439469 0.9200
379   -139.4935321559  -0.001140896167 0.00125609  0.00002914  0.0329950 0.9200
               *** Restarting incremental Fock matrix formation ***
                                   *** Resetting DIIS ***
380   -139.4943130429  -0.000780886958 0.00166887  0.00003829  0.0232733 0.9200
381   -139.4948625798  -0.000549536865 0.00134581  0.00003327  0.0106745 0.9200
382   -139.4949892048  -0.000126625036 0.00110906  0.00002828  0.0053452 0.9200
383   -139.4948607304   0.000128474377 0.00093419  0.00002402  0.0113155 0.9200
384   -139.4945854533   0.000275277090 0.00078787  0.00002034  0.0162578 0.9200
385   -139.4942340502   0.000351403125 0.00066354  0.00001719  0.0203841 0.9200
386   -139.4938531703   0.000380879904 0.00055649  0.00001448  0.0251488 0.9200
387   -139.4934735640   0.000379606335 0.00046037  0.00001209  0.0291599 0.9200
388   -139.4931180281   0.000355535809 0.00036025  0.00000970  0.0324765 0.9200
389   -139.4928139501   0.000304078092 0.00023976  0.00000695  0.0350912 0.9200
390   -139.4926031378   0.000210812249 0.00013787  0.00000369  0.0368618 0.9200
391   -139.4925512160   0.000051921804 0.00023367  0.00000525  0.0374476 0.9200
392   -139.4927659401  -0.000214724081 0.00085670  0.00001810  0.0360707 0.9200
393   -139.4934398408  -0.000673900678 0.00105125  0.00002342  0.0304231 0.9200
394   -139.4941115755  -0.000671734776 0.00096404  0.00002249  0.0232627 0.9200
395   -139.4945739881  -0.000462412550 0.00085164  0.00002018  0.0165439 0.9200
396   -139.4948542600  -0.000280271940 0.00073679  0.00001756  0.0105405 0.9200
397   -139.4950006437  -0.000146383703 0.00062838  0.00001504  0.0053083 0.9200
398   -139.4950568417  -0.000056197938 0.00664482  0.00015982  0.0016437 0.0000
399   -139.4917170525   0.003339789134 0.00004055  0.00000095  0.0491517 0.9200
               *** Restarting incremental Fock matrix formation ***
                                   *** Resetting DIIS ***
400   -139.4917649259  -0.000047873332 0.00169491  0.00003526  0.0488205 0.9200
401   -139.4931918055  -0.001426879620 0.00168336  0.00003800  0.0359267 0.9200
402   -139.4942241584  -0.001032352957 0.00142456  0.00003448  0.0230652 0.9200
403   -139.4947600132  -0.000535854758 0.00120980  0.00003011  0.0121696 0.9200
404   -139.4949490000  -0.000188986839 0.00102608  0.00002581  0.0030197 0.9200
405   -139.4949137946   0.000035205446 0.00087517  0.00002209  0.0084655 0.9200
406   -139.4947411706   0.000172623985 0.00074551  0.00001887  0.0130586 0.9200
407   -139.4944904229   0.000250747679 0.00063279  0.00001606  0.0169410 0.9200
408   -139.4942026440   0.000287778916 0.00053460  0.00001362  0.0211259 0.9200
409   -139.4939058870   0.000296757063 0.00044768  0.00001148  0.0249878 0.9200
410   -139.4936197662   0.000286120723 0.00036082  0.00000941  0.0282173 0.9200
411   -139.4933648644   0.000254901877 0.00025882  0.00000712  0.0308302 0.9200
412   -139.4931703514   0.000194512996 0.00015128  0.00000433  0.0327380 0.9200
413   -139.4930809743   0.000089377018 0.00010103  0.00000300  0.0337055 0.9200
414   -139.4931672049  -0.000086230523 0.00050607  0.00001068  0.0332231 0.9200
415   -139.4935538307  -0.000386625888 0.00107979  0.00002322  0.0299379 0.9200
416   -139.4942090424  -0.000655211681 0.00098376  0.00002249  0.0225867 0.9200
417   -139.4946536518  -0.000444609413 0.00086071  0.00002016  0.0157371 0.9200
418   -139.4949145340  -0.000260882132 0.00074086  0.00001750  0.0096625 0.9200
419   -139.4950430891  -0.000128555136 0.00062941  0.00001494  0.0043924 0.9200
               *** Restarting incremental Fock matrix formation ***
                                   *** Resetting DIIS ***
420   -139.4950841045  -0.000041015346 0.00627094  0.00015154  0.0022272 0.0000
421   -139.4920354861   0.003048618384 0.00003961  0.00000100  0.0472228 0.9200
422   -139.4920797954  -0.000044309317 0.00007312  0.00000178  0.0468993 0.9200
423   -139.4921605729  -0.000080777506 0.00010041  0.00000241  0.0463054 0.9200
424   -139.4922695498  -0.000108976884 0.00012207  0.00000291  0.0454932 0.9200
425   -139.4923992481  -0.000129698350 0.00144232  0.00002999  0.0445086 0.9200
426   -139.4935372651  -0.001138016958 0.00127437  0.00002909  0.0335461 0.9200
427   -139.4943218488  -0.000784583707 0.00111542  0.00002679  0.0237674 0.9200
428   -139.4947995101  -0.000477661335 0.00097659  0.00002387  0.0151955 0.9200
429   -139.4950465168  -0.000247006632 0.00084366  0.00002080  0.0077625 0.9200
430   -139.4951300720  -0.000083555221 0.00900917  0.00022350  0.0026660 0.0000
431   -139.4882877366   0.006842335345 0.00004462  0.00000109  0.0617153 0.9200
432   -139.4883570432  -0.000069306530 0.00007988  0.00000194  0.0614416 0.9200
433   -139.4884799858  -0.000122942610 0.00010854  0.00000263  0.0609519 0.9200
434   -139.4886450630  -0.000165077198 0.00013220  0.00000320  0.0602853 0.9200
435   -139.4888432277  -0.000198164774 0.00254513  0.00005327  0.0594712 0.9200
436   -139.4917676840  -0.002924456257 0.00222462  0.00004951  0.0425350 0.9200
437   -139.4935461471  -0.001778463144 0.00191325  0.00004392  0.0273913 0.9200
438   -139.4944292386  -0.000883091499 0.00163933  0.00003802  0.0140535 0.9200
439   -139.4947046763  -0.000275437657 0.00139554  0.00003255  0.0037150 0.9200
               *** Restarting incremental Fock matrix formation ***
                                   *** Resetting DIIS ***
440   -139.4945935998   0.000111076495 0.00080097  0.00002101  0.0111024 0.9200
441   -139.4944133883   0.000180211468 0.00062179  0.00001605  0.0143117 0.9200
442   -139.4942171982   0.000196190152 0.00050890  0.00001302  0.0180694 0.9200
443   -139.4940196614   0.000197536738 0.00041795  0.00001075  0.0218379 0.9200
444   -139.4938338190   0.000185842462 0.00034201  0.00000891  0.0249518 0.9200
445   -139.4936678011   0.000166017865 0.00023351  0.00000660  0.0275137 0.9200
446   -139.4935568099   0.000110991204 0.00011513  0.00000380  0.0292754 0.9200
447   -139.4935421769   0.000014633011 0.00013637  0.00000327  0.0299143 0.9200
448   -139.4936741633  -0.000131986395 0.00052587  0.00001061  0.0289012 0.9200
449   -139.4940224020  -0.000348238657 0.00075398  0.00001612  0.0249833 0.9200
450   -139.4944198788  -0.000397476863 0.00069922  0.00001594  0.0193410 0.9200
451   -139.4947103698  -0.000290490968 0.00062682  0.00001466  0.0140468 0.9200
452   -139.4949019976  -0.000191627776 0.00055074  0.00001302  0.0093013 0.9200
453   -139.4950161052  -0.000114107621 0.00047506  0.00001132  0.0051466 0.9200
454   -139.4950742826  -0.000058177392 0.00505785  0.00012129  0.0015724 0.0000
455   -139.4932441653   0.001830117245 0.00002791  0.00000065  0.0354711 0.9200
456   -139.4932678494  -0.000023684103 0.00005057  0.00000118  0.0352855 0.9200
457   -139.4933103762  -0.000042526771 0.00006894  0.00000161  0.0349492 0.9200
458   -139.4933676155  -0.000057239249 0.00008363  0.00000195  0.0344904 0.9200
459   -139.4934359632  -0.000068347788 0.00133960  0.00002780  0.0339330 0.9200
               *** Restarting incremental Fock matrix formation ***
                                   *** Resetting DIIS ***
460   -139.4942793824  -0.000843419131 0.00200178  0.00004232  0.0246979 0.9200
461   -139.4949548703  -0.000675487961 0.00163097  0.00003653  0.0104816 0.9200
462   -139.4950529875  -0.000098117205 0.00134772  0.00003091  0.0065593 0.9200
463   -139.4948100578   0.000242929767 0.00113168  0.00002616  0.0137621 0.9200
464   -139.4943804928   0.000429564963 0.00094981  0.00002209  0.0196690 0.9200
465   -139.4938634527   0.000517040096 0.00079266  0.00001857  0.0266952 0.9200
466   -139.4933248947   0.000538558022 0.00065426  0.00001547  0.0326901 0.9200
467   -139.4928091158   0.000515778920 0.00051152  0.00001237  0.0376799 0.9200
468   -139.4923651121   0.000444003671 0.00034558  0.00000891  0.0416130 0.9200
469   -139.4920526213   0.000312490832 0.00016422  0.00000483  0.0442959 0.9200
470   -139.4919499361   0.000102685166 0.00018321  0.00000420  0.0453385 0.9200
471   -139.4921643459  -0.000214409786 0.00074865  0.00001510  0.0439773 0.9200
472   -139.4928583567  -0.000694010787 0.00114309  0.00002429  0.0383230 0.9200
473   -139.4937096148  -0.000851258159 0.00105812  0.00002404  0.0296796 0.9200
474   -139.4943241225  -0.000614507684 0.00094881  0.00002215  0.0216172 0.9200
475   -139.4947207025  -0.000396580002 0.00083506  0.00001970  0.0144222 0.9200
476   -139.4949465294  -0.000225826855 0.00072116  0.00001711  0.0081460 0.9200
477   -139.4950492222  -0.000102692858 0.00767726  0.00018303  0.0027688 0.0000
478   -139.4906489131   0.004400309105 0.00004239  0.00000100  0.0515736 0.9200
479   -139.4907024442  -0.000053531022 0.00007718  0.00000183  0.0513033 0.9200
               *** Restarting incremental Fock matrix formation ***
                                   *** Resetting DIIS ***
480   -139.4907989791  -0.000096534988 0.00225160  0.00004669  0.0508109 0.9200
481   -139.4929110314  -0.002112052230 0.00223500  0.00004851  0.0355968 0.9200
482   -139.4942580370  -0.001347005620 0.00189934  0.00004285  0.0201283 0.9200
483   -139.4947762145  -0.000518177506 0.00160440  0.00003674  0.0067044 0.9200
484   -139.4947590507   0.000017163763 0.00136148  0.00003137  0.0093424 0.9200
485   -139.4944207004   0.000338350303 0.00115375  0.00002675  0.0165172 0.9200
486   -139.4939046029   0.000516097532 0.00097321  0.00002272  0.0232652 0.9200
487   -139.4933082996   0.000596303322 0.00081634  0.00001920  0.0305388 0.9200
488   -139.4926969127   0.000611386856 0.00066598  0.00001589  0.0367066 0.9200
489   -139.4921269155   0.000569997172 0.00050441  0.00001243  0.0417890 0.9200
490   -139.4916594646   0.000467450970 0.00031073  0.00000848  0.0456777 0.9200
491   -139.4913699037   0.000289560927 0.00013111  0.00000410  0.0481073 0.9200
492   -139.4913560643   0.000013839401 0.00033952  0.00000689  0.0485751 0.9200
493   -139.4917563821  -0.000400317808 0.00109456  0.00002208  0.0460378 0.9200
494   -139.4927600902  -0.001003708170 0.00118603  0.00002566  0.0378127 0.9200
495   -139.4936402048  -0.000880114589 0.00108419  0.00002474  0.0288618 0.9200
496   -139.4942576376  -0.000617432736 0.00097059  0.00002256  0.0206405 0.9200
497   -139.4946482509  -0.000390613324 0.00085176  0.00001995  0.0133362 0.9200
498   -139.4948641215  -0.000215870615 0.00073405  0.00001728  0.0069873 0.9200
499   -139.4949559168  -0.000091795348 0.00781502  0.00018458  0.0015597 0.0000
               *** Restarting incremental Fock matrix formation ***
                                   *** Resetting DIIS ***
500   -139.4903091488   0.004646768078 0.00230544  0.00004771  0.0533717 0.9200
501   -139.4925930448  -0.002283896037 0.00232943  0.00005037  0.0378831 0.9200
502   -139.4940999368  -0.001506891964 0.00198759  0.00004469  0.0218384 0.9200
503   -139.4947051425  -0.000605205714 0.00168269  0.00003842  0.0078539 0.9200
504   -139.4947202806  -0.000015138072 0.00142464  0.00003275  0.0092638 0.9200
505   -139.4943802442   0.000340036368 0.00120641  0.00002791  0.0167524 0.9200
506   -139.4938428609   0.000537383307 0.00101650  0.00002369  0.0234217 0.9200
507   -139.4932153636   0.000627497325 0.00085001  0.00001999  0.0310035 0.9200
508   -139.4925707089   0.000644654628 0.00069797  0.00001662  0.0374173 0.9200
509   -139.4919631700   0.000607538970 0.00053394  0.00001312  0.0427397 0.9200
510   -139.4914578420   0.000505327967 0.00033719  0.00000911  0.0468553 0.9200
511   -139.4911345110   0.000323330989 0.00014699  0.00000457  0.0494930 0.9200
512   -139.4910962790   0.000038231973 0.00031544  0.00000647  0.0501467 0.9200
513   -139.4914852098  -0.000388930819 0.00105588  0.00002117  0.0478032 0.9200
514   -139.4925019982  -0.001016788358 0.00121911  0.00002611  0.0398732 0.9200
515   -139.4934535447  -0.000951546528 0.00112245  0.00002541  0.0306870 0.9200
516   -139.4941318186  -0.000678273919 0.00100816  0.00002328  0.0221881 0.9200
517   -139.4945679451  -0.000436126440 0.00088728  0.00002065  0.0146124 0.9200
518   -139.4948152575  -0.000247312457 0.00076638  0.00001792  0.0080114 0.9200
519   -139.4949270208  -0.000111763233 0.00816952  0.00019169  0.0023588 0.0000
               *** Restarting incremental Fock matrix formation ***
                                   *** Resetting DIIS ***
520   -139.4900324936   0.004894527218 0.00237792  0.00004911  0.0547895 0.9200
521   -139.4924469475  -0.002414453943 0.00240183  0.00005179  0.0388559 0.9200
522   -139.4940359507  -0.001589003211 0.00204962  0.00004593  0.0223561 0.9200
523   -139.4946713271  -0.000635376401 0.00173509  0.00003948  0.0079725 0.9200
524   -139.4946833101  -0.000011982981 0.00146886  0.00003366  0.0095591 0.9200
525   -139.4943203575   0.000362952558 0.00124355  0.00002868  0.0172766 0.9200
526   -139.4937493795   0.000570978084 0.00104746  0.00002434  0.0242117 0.9200
527   -139.4930837900   0.000665589463 0.00087553  0.00002053  0.0320170 0.9200
528   -139.4924007318   0.000683058142 0.00071822  0.00001707  0.0386202 0.9200
529   -139.4917579231   0.000642808738 0.00054817  0.00001345  0.0440971 0.9200
530   -139.4912247835   0.000533139645 0.00034390  0.00000930  0.0483249 0.9200
531   -139.4908863812   0.000338402257 0.00014774  0.00000463  0.0510196 0.9200
532   -139.4908524145   0.000033966752 0.00033485  0.00000682  0.0516534 0.9200
533   -139.4912737929  -0.000421378482 0.00110613  0.00002212  0.0491688 0.9200
534   -139.4923607872  -0.001086994301 0.00125658  0.00002686  0.0408680 0.9200
535   -139.4933612513  -0.001000464071 0.00115567  0.00002609  0.0314095 0.9200
536   -139.4940725181  -0.000711266818 0.00103794  0.00002389  0.0226740 0.9200
537   -139.4945289559  -0.000456437804 0.00091355  0.00002119  0.0148925 0.9200
538   -139.4947869727  -0.000258016721 0.00078922  0.00001839  0.0081151 0.9200
539   -139.4949026737  -0.000115701027 0.00841619  0.00019664  0.0023129 0.0000
               *** Restarting incremental Fock matrix formation ***
                                   *** Resetting DIIS ***
540   -139.4897303177   0.005172355992 0.00245360  0.00005060  0.0562719 0.9200
541   -139.4922866229  -0.002556305185 0.00247761  0.00005331  0.0398757 0.9200
542   -139.4939650107  -0.001678387841 0.00211497  0.00004726  0.0228998 0.9200
543   -139.4946331739  -0.000668163229 0.00179072  0.00004062  0.0080955 0.9200
544   -139.4946412942  -0.000008120260 0.00151618  0.00003464  0.0099234 0.9200
545   -139.4942524765   0.000388817667 0.00128367  0.00002952  0.0178827 0.9200
546   -139.4936435138   0.000608962697 0.00108125  0.00002506  0.0250639 0.9200
547   -139.4929346078   0.000708905996 0.00090374  0.00002114  0.0331142 0.9200
548   -139.4922075520   0.000727055838 0.00074089  0.00001757  0.0399277 0.9200
549   -139.4915240152   0.000683536809 0.00056441  0.00001383  0.0455783 0.9200
550   -139.4909584135   0.000565601709 0.00035202  0.00000954  0.0499345 0.9200
551   -139.4906019173   0.000356496191 0.00014945  0.00000473  0.0526980 0.9200
552   -139.4905717900   0.000030127320 0.00035476  0.00000718  0.0533174 0.9200
553   -139.4910289733  -0.000457183318 0.00115840  0.00002311  0.0506881 0.9200
554   -139.4921944389  -0.001165465643 0.00129782  0.00002770  0.0419999 0.9200
555   -139.4932519476  -0.001057508697 0.00119230  0.00002686  0.0322388 0.9200
556   -139.4940019844  -0.000750036804 0.00107077  0.00002458  0.0232388 0.9200
557   -139.4944824551  -0.000480470613 0.00094252  0.00002180  0.0152268 0.9200
558   -139.4947532871  -0.000270832063 0.00081439  0.00001891  0.0082515 0.9200
559   -139.4948738691  -0.000120582026 0.00868753  0.00020225  0.0022816 0.0000
               *** Restarting incremental Fock matrix formation ***
                                   *** Resetting DIIS ***
560   -139.4893806430   0.005493226137 0.00253772  0.00005227  0.0579090 0.9200
561   -139.4921010908  -0.002720447759 0.00256153  0.00005500  0.0409995 0.9200
562   -139.4938824799  -0.001781389161 0.00218734  0.00004876  0.0234962 0.9200
563   -139.4945881473  -0.000705667391 0.00185236  0.00004191  0.0082253 0.9200
564   -139.4945913813  -0.000003233985 0.00156868  0.00003575  0.0103352 0.9200
565   -139.4941722222   0.000419159129 0.00132823  0.00003047  0.0185645 0.9200
566   -139.4935188993   0.000653322904 0.00111882  0.00002587  0.0260182 0.9200
567   -139.4927594772   0.000759422088 0.00093513  0.00002183  0.0343418 0.9200
568   -139.4919811395   0.000778337705 0.00076612  0.00001814  0.0413901 0.9200
569   -139.4912501981   0.000730941329 0.00058242  0.00001426  0.0472346 0.9200
570   -139.4906469495   0.000603248614 0.00036090  0.00000980  0.0517338 0.9200
571   -139.4902697414   0.000377208140 0.00015122  0.00000484  0.0545730 0.9200
572   -139.4902447021   0.000025039249 0.00037757  0.00000760  0.0551738 0.9200
573   -139.4907444766  -0.000499774431 0.00121762  0.00002425  0.0523779 0.9200
574   -139.4920019380  -0.001257461420 0.00134392  0.00002865  0.0432492 0.9200
575   -139.4931255009  -0.001123562951 0.00123300  0.00002772  0.0331473 0.9200
576   -139.4939201496  -0.000794648703 0.00110713  0.00002536  0.0238508 0.9200
577   -139.4944280887  -0.000507939080 0.00097453  0.00002248  0.0155812 0.9200
578   -139.4947133924  -0.000285303627 0.00084217  0.00001950  0.0083853 0.9200
579   -139.4948392815  -0.000125889138 0.00898678  0.00020859  0.0022285 0.0000
               *** Restarting incremental Fock matrix formation ***
                                   *** Resetting DIIS ***
580   -139.4889691050   0.005870176452 0.00263287  0.00005418  0.0597460 0.9200
581   -139.4918829366  -0.002913831569 0.00265612  0.00005693  0.0422577 0.9200
582   -139.4937851263  -0.001902189658 0.00226894  0.00005046  0.0241604 0.9200
583   -139.4945344208  -0.000749294566 0.00192196  0.00004337  0.0083635 0.9200
584   -139.4945313385   0.000003082366 0.00163426  0.00003713  0.0108102 0.9200
585   -139.4940727485   0.000458589946 0.00138782  0.00003174  0.0193768 0.9200
586   -139.4933584985   0.000714249973 0.00117328  0.00002704  0.0272200 0.9200
587   -139.4925251918   0.000833306784 0.00098668  0.00002293  0.0359434 0.9200
588   -139.4916645568   0.000860634964 0.00080672  0.00001903  0.0433795 0.9200
589   -139.4908575724   0.000806984364 0.00061205  0.00001495  0.0495372 0.9200
590   -139.4901926661   0.000664906383 0.00037819  0.00001026  0.0542718 0.9200
591   -139.4897778412   0.000414824897 0.00015655  0.00000506  0.0572546 0.9200
592   -139.4897506694   0.000027171755 0.00039824  0.00000800  0.0578835 0.9200
593   -139.4903009619  -0.000550292485 0.00127889  0.00002541  0.0549374 0.9200
594   -139.4916811064  -0.001380144480 0.00140811  0.00002995  0.0453460 0.9200
595   -139.4929112241  -0.001230117771 0.00129195  0.00002899  0.0347618 0.9200
596   -139.4937815851  -0.000870361002 0.00116070  0.00002653  0.0250263 0.9200
597   -139.4943385153  -0.000556930172 0.00102239  0.00002353  0.0163671 0.9200
598   -139.4946517579  -0.000313242598 0.00088412  0.00002042  0.0088318 0.9200
599   -139.4947902177  -0.000138459757 0.00944060  0.00021853  0.0023844 0.0000
               *** Restarting incremental Fock matrix formation ***
                                   *** Resetting DIIS ***
600   -139.4883462834   0.006443934250 0.00276990  0.00005697  0.0623609 0.9200
601   -139.4915535998  -0.003207316341 0.00279156  0.00005973  0.0440418 0.9200
602   -139.4936378322  -0.002084232450 0.00238572  0.00005292  0.0250947 0.9200
603   -139.4944521053  -0.000814273141 0.00202158  0.00004550  0.0085447 0.9200
604   -139.4944383577   0.000013747652 0.00171966  0.00003896  0.0114931 0.9200
605   -139.4939232886   0.000515069060 0.00146066  0.00003332  0.0205063 0.9200
606   -139.4931269937   0.000796294922 0.00123502  0.00002839  0.0288049 0.9200
607   -139.4922001213   0.000926872375 0.00103867  0.00002408  0.0379798 0.9200
608   -139.4912438895   0.000956231837 0.00084841  0.00001998  0.0458070 0.9200
609   -139.4903488568   0.000895032671 0.00064160  0.00001566  0.0522875 0.9200
610   -139.4896145387   0.000734318141 0.00039231  0.00001069  0.0572589 0.9200
611   -139.4891624204   0.000452118281 0.00015890  0.00000525  0.0603642 0.9200
612   -139.4891465284   0.000015892031 0.00043780  0.00000875  0.0609551 0.9200
613   -139.4897783740  -0.000631845575 0.00137925  0.00002736  0.0577177 0.9200
614   -139.4913299623  -0.001551588312 0.00148432  0.00003157  0.0473740 0.9200
615   -139.4926807240  -0.001350761767 0.00135852  0.00003045  0.0362189 0.9200
616   -139.4936318587  -0.000951134657 0.00121992  0.00002784  0.0259911 0.9200
617   -139.4942380878  -0.000606229157 0.00107442  0.00002468  0.0169060 0.9200
618   -139.4945768645  -0.000338776634 0.00092921  0.00002142  0.0090070 0.9200
619   -139.4947241349  -0.000147270401 0.00992627  0.00022926  0.0022518 0.0000
               *** Restarting incremental Fock matrix formation ***
                                   *** Resetting DIIS ***
620   -139.4875726170   0.007151517862 0.00293186  0.00006028  0.0654048 0.9200
621   -139.4911458954  -0.003573278420 0.00295109  0.00006305  0.0461124 0.9200
622   -139.4934555909  -0.002309695502 0.00252360  0.00005584  0.0261711 0.9200
623   -139.4943493393  -0.000893748391 0.00213954  0.00004802  0.0087380 0.9200
624   -139.4943205886   0.000028750761 0.00182107  0.00004114  0.0123364 0.9200
625   -139.4937330928   0.000587495800 0.00154741  0.00003520  0.0218794 0.9200
626   -139.4928321913   0.000900901426 0.00130874  0.00003001  0.0306993 0.9200
627   -139.4917861204   0.001046070934 0.00110093  0.00002547  0.0404124 0.9200
628   -139.4907080301   0.001078090305 0.00089842  0.00002113  0.0487079 0.9200
629   -139.4897008006   0.001007229456 0.00067699  0.00001652  0.0555761 0.9200
630   -139.4888783276   0.000822473029 0.00040900  0.00001122  0.0608321 0.9200
631   -139.4883795683   0.000498759318 0.00016412  0.00000550  0.0640837 0.9200
632   -139.4883797224  -0.000000154141 0.00048636  0.00000967  0.0646259 0.9200
633   -139.4891178879  -0.000738165408 0.00150032  0.00002972  0.0610314 0.9200
634   -139.4908882477  -0.001770359885 0.00157643  0.00003353  0.0497797 0.9200
635   -139.4923916561  -0.001503408366 0.00143860  0.00003223  0.0379337 0.9200
636   -139.4934442493  -0.001052593198 0.00129100  0.00002943  0.0271130 0.9200
637   -139.4941118783  -0.000667629038 0.00113680  0.00002608  0.0175169 0.9200
638   -139.4944819359  -0.000370057577 0.00098325  0.00002263  0.0091823 0.9200
639   -139.4946393566  -0.000157420646 0.01050854  0.00024226  0.0020590 0.0000
               *** Restarting incremental Fock matrix formation ***
                                   *** Resetting DIIS ***
640   -139.4865737595   0.008065597039 0.00313009  0.00006435  0.0690554 0.9200
641   -139.4906222986  -0.004048539082 0.00314540  0.00006711  0.0485842 0.9200
642   -139.4932220775  -0.002599778856 0.00269184  0.00005941  0.0274436 0.9200
643   -139.4942164635  -0.000994386085 0.00228379  0.00005110  0.0089425 0.9200
644   -139.4941656922   0.000050771371 0.00194532  0.00004382  0.0133907 0.9200
645   -139.4934814453   0.000684246855 0.00165390  0.00003751  0.0235848 0.9200
646   -139.4924418192   0.001039626120 0.00139942  0.00003200  0.0330346 0.9200
647   -139.4912379610   0.001203858177 0.00117764  0.00002718  0.0434073 0.9200
648   -139.4899986220   0.001239339032 0.00096001  0.00002254  0.0522788 0.9200
649   -139.4888431711   0.001155450892 0.00072036  0.00001759  0.0596245 0.9200
650   -139.4879049199   0.000938251187 0.00042890  0.00001186  0.0652305 0.9200
651   -139.4873464002   0.000558519736 0.00017855  0.00000581  0.0686591 0.9200
652   -139.4873711582  -0.000024758074 0.00054870  0.00001086  0.0691329 0.9200
653   -139.4882546809  -0.000883522608 0.00165199  0.00003269  0.0650808 0.9200
654   -139.4903154594  -0.002060778555 0.00169123  0.00003599  0.0526922 0.9200
655   -139.4920184611  -0.001703001661 0.00153785  0.00003445  0.0399855 0.9200
656   -139.4932023821  -0.001183921062 0.00137888  0.00003142  0.0284313 0.9200
657   -139.4939485327  -0.000746150590 0.00121383  0.00002783  0.0182057 0.9200
658   -139.4943576314  -0.000409098712 0.00104997  0.00002414  0.0093361 0.9200
659   -139.4945265077  -0.000168876309 0.01122834  0.00025847  0.0023710 0.0000
               *** Restarting incremental Fock matrix formation ***
                                   *** Resetting DIIS ***
660   -139.4852302524   0.009296255316 0.00338107  0.00006953  0.0735584 0.9200
661   -139.4899228023  -0.004692549876 0.00338994  0.00007222  0.0516159 0.9200
662   -139.4929111465  -0.002988344243 0.00290413  0.00006392  0.0289855 0.9200
663   -139.4940377564  -0.001126609892 0.00246635  0.00005501  0.0091548 0.9200
664   -139.4939530515   0.000084704897 0.00210297  0.00004721  0.0147564 0.9200
665   -139.4931332776   0.000819773940 0.00178936  0.00004045  0.0257787 0.9200
666   -139.4919008500   0.001232427558 0.00151505  0.00003454  0.0360105 0.9200
667   -139.4904780736   0.001422776488 0.00127567  0.00002936  0.0472189 0.9200
668   -139.4890150269   0.001463046682 0.00103874  0.00002434  0.0568236 0.9200
669   -139.4876542530   0.001360773903 0.00077552  0.00001894  0.0647788 0.9200
670   -139.4865566497   0.001097603253 0.00045343  0.00001268  0.0708313 0.9200
671   -139.4859182340   0.000638415755 0.00019807  0.00000625  0.0744820 0.9200
672   -139.4859824447  -0.000064210748 0.00063193  0.00001246  0.0748577 0.9200
673   -139.4870749294  -0.001092484680 0.00184824  0.00003652  0.0701971 0.9200
674   -139.4895385881  -0.002463658711 0.00183940  0.00003919  0.0563402 0.9200
675   -139.4915145384  -0.001975950272 0.00166534  0.00003732  0.0425256 0.9200
676   -139.4928762359  -0.001361697489 0.00149155  0.00003398  0.0300335 0.9200
677   -139.4937273472  -0.000851111294 0.00131255  0.00003008  0.0190066 0.9200
678   -139.4941872375  -0.000459890356 0.00113555  0.00002609  0.0094578 0.9200
679   -139.4943691771  -0.000181939585 0.00097230  0.00002236  0.0031104 0.9200
               *** Restarting incremental Fock matrix formation ***
                                   *** Resetting DIIS ***
680   -139.4943677687   0.000001408370 0.00059512  0.00001492  0.0081841 0.9200
[...]
  29   0.0000       0.245736         6.6868 
  30   0.0000       0.271018         7.3748 
  31   0.0000       0.279383         7.6024 
  32   0.0000       0.289086         7.8664 
  33   0.0000       0.289790         7.8856 
  34   0.0000       0.294238         8.0066 
  35   0.0000       0.296302         8.0628 
  36   0.0000       0.325127         8.8472 
  37   0.0000       0.330375         8.9900 
  38   0.0000       0.442301        12.0356 
  39   0.0000       0.492421        13.3995 
  40   0.0000       0.552875        15.0445 
  41   0.0000       0.561699        15.2846 
  42   0.0000       0.614347        16.7172 
  43   0.0000       0.614907        16.7325 
  44   0.0000       0.636093        17.3090 
  45   0.0000       0.636481        17.3195 
  46   0.0000       0.667434        18.1618 
  47   0.0000       0.696880        18.9631 
  48   0.0000       0.741222        20.1697 
  49   0.0000       0.778846        21.1935 
  50   0.0000       0.780235        21.2313 
  51   0.0000       0.795857        21.6564 
  52   0.0000       0.798346        21.7241 
  53   0.0000       0.799337        21.7511 
  54   0.0000       0.818943        22.2846 
  55   0.0000       0.819172        22.2908 
  56   0.0000       0.836665        22.7668 
  57   0.0000       0.837595        22.7921 
  58   0.0000       0.854031        23.2394 
  59   0.0000       0.877745        23.8847 
  60   0.0000       0.879655        23.9366 
  61   0.0000       0.881922        23.9983 
  62   0.0000       0.931979        25.3604 
  63   0.0000       0.932622        25.3779 
  64   0.0000       0.937871        25.5208 
  65   0.0000       0.943653        25.6781 
  66   0.0000       0.948713        25.8158 
  67   0.0000       1.035871        28.1875 
  68   0.0000       1.036173        28.1957 
  69   0.0000       1.052147        28.6304 
  70   0.0000       1.084197        29.5025 
  71   0.0000       1.192455        32.4483 
  72   0.0000       1.194502        32.5041 
  73   0.0000       1.317670        35.8556 
  74   0.0000       1.329747        36.1842 
  75   0.0000       1.329959        36.1900 
  76   0.0000       1.343467        36.5576 
  77   0.0000       1.344926        36.5973 
  78   0.0000       1.389502        37.8103 
  79   0.0000       1.397600        38.0306 
  80   0.0000       1.479862        40.2691 
  81   0.0000       1.603411        43.6310 
  82   0.0000       1.616017        43.9741 
  83   0.0000       1.616620        43.9905 
  84   0.0000       1.782807        48.5126 
  85   0.0000       1.785842        48.5952 
  86   0.0000       1.808261        49.2053 
  87   0.0000       1.887124        51.3512 
  88   0.0000       1.888867        51.3987 
  89   0.0000       1.892390        51.4946 
  90   0.0000       2.511154        68.3320 
  91   0.0000       2.552601        69.4598 
  92   0.0000       2.555752        69.5455 
  93   0.0000       2.654539        72.2337 
  94   0.0000       2.655184        72.2512 
  95   0.0000       2.661320        72.4182 
  96   0.0000       2.661350        72.4190 
  97   0.0000       2.667015        72.5732 
  98   0.0000       2.742530        74.6280 
  99   0.0000       2.742554        74.6287 
 100   0.0000       2.742721        74.6332 
 101   0.0000       2.746682        74.7410 
 102   0.0000       2.746785        74.7438 
 103   0.0000       2.755156        74.9716 
 104   0.0000       2.755240        74.9739 
 105   0.0000       2.792732        75.9941 
 106   0.0000       2.795257        76.0628 
 107   0.0000       2.797628        76.1273 
 108   0.0000       3.110623        84.6444 
 109   0.0000       3.146401        85.6179 
 110   0.0000       3.152650        85.7880 
 111   0.0000       3.189254        86.7840 
 112   0.0000       3.191825        86.8540 
 113   0.0000       3.231251        87.9268 
 114   0.0000       3.233080        87.9766 
 115   0.0000       3.239122        88.1410 
 116   0.0000       3.292794        89.6015 
 117   0.0000       3.492545        95.0370 
 118   0.0000       3.516640        95.6926 
 119   0.0000       3.528274        96.0092 
 120   0.0000       3.529748        96.0493 
 121   0.0000       3.809283       103.6559 
 122   0.0000       3.809655       103.6660 
 123   0.0000       3.955218       107.6270 
 124   0.0000       3.955939       107.6466 
 125   0.0000       3.958958       107.7287 
 126   0.0000       4.218411       114.7888 
 127   0.0000       4.375850       119.0729 
 128   0.0000       4.377285       119.1120 
 129   0.0000       4.403788       119.8332 
 130   0.0000       4.405796       119.8878 
 131   0.0000       4.605321       125.3172 
 132   0.0000       4.609213       125.4231 
 133   0.0000       4.784279       130.1868 
 134   0.0000       4.784428       130.1909 
 135   0.0000       4.790049       130.3439 
 136   0.0000       4.851372       132.0126 
 137   0.0000       4.853376       132.0671 
 138   0.0000       4.901611       133.3796 
 139   0.0000       4.903445       133.4295 
 140   0.0000       4.979599       135.5018 
 141   0.0000       4.981492       135.5533 
 142   0.0000       5.063417       137.7826 
 143   0.0000       5.845278       159.0581 
 144   0.0000       5.978274       162.6771 
 145   0.0000       5.979468       162.7096 
 146   0.0000       6.201551       168.7528 
 147   0.0000       8.386561       228.2099 
 148   0.0000       8.388109       228.2521 
 149   0.0000       8.388165       228.2536 
 150   0.0000       8.396318       228.4754 
 151   0.0000       8.396353       228.4764 
 152   0.0000       8.411717       228.8945 
 153   0.0000       8.411741       228.8951 
 154   0.0000       8.785545       239.0668 
 155   0.0000       8.785678       239.0704 
 156   0.0000       8.792472       239.2553 
 157   0.0000       8.797219       239.3845 
 158   0.0000       8.797282       239.3862 
 159   0.0000      10.101964       274.8884 
 160   0.0000      15.630640       425.3313 

                    ********************************
                    * MULLIKEN POPULATION ANALYSIS *
                    ********************************

--------------------------------------------
MULLIKEN ATOMIC CHARGES AND SPIN POPULATIONS
--------------------------------------------
   0 C :   -0.769425    0.000000
   1 H :    0.395520    0.000000
   2 H :    0.419481    0.000000
   3 H :    0.415554    0.000000
   4 F :   -0.461130    0.000000
Sum of atomic charges         :    0.0000000
Sum of atomic spin populations:    0.0000000

-----------------------------------------------------
MULLIKEN REDUCED ORBITAL CHARGES AND SPIN POPULATIONS
-----------------------------------------------------
CHARGE
  0 C s       :     3.706111  s :     3.706111
      pz      :     1.250364  p :     2.996479
      px      :     1.064261
      py      :     0.681855
      dz2     :     0.020430  d :     0.061450
      dxz     :     0.022023
      dyz     :     0.006179
      dx2y2   :     0.003021
      dxy     :     0.009797
      f0      :     0.000381  f :     0.005385
      f+1     :     0.002719
      f-1     :     0.000983
      f+2     :     0.000162
      f-2     :     0.000212
      f+3     :    -0.000033
      f-3     :     0.000960
  1 H s       :     0.551922  s :     0.551922
      pz      :     0.024251  p :     0.047758
      px      :     0.007618
      py      :     0.015889
      dz2     :    -0.000458  d :     0.004800
      dxz     :     0.003309
      dyz     :     0.001078
      dx2y2   :     0.000954
      dxy     :    -0.000083
  2 H s       :     0.534536  s :     0.534536
      pz      :     0.014158  p :     0.042302
      px      :     0.014347
      py      :     0.013797
      dz2     :     0.002339  d :     0.003682
      dxz     :    -0.000915
      dyz     :     0.001326
      dx2y2   :     0.000313
      dxy     :     0.000618
  3 H s       :     0.537898  s :     0.537898
      pz      :     0.013365  p :     0.043712
      px      :     0.016131
      py      :     0.014216
      dz2     :     0.000724  d :     0.002836
      dxz     :     0.000477
      dyz     :     0.001188
      dx2y2   :     0.000014
      dxy     :     0.000434
  4 F s       :     4.000303  s :     4.000303
      pz      :     1.996736  p :     5.460679
      px      :     1.867633
      py      :     1.596309
      dz2     :     0.000023  d :     0.000112
      dxz     :     0.000003
      dyz     :     0.000009
      dx2y2   :     0.000028
      dxy     :     0.000049
      f0      :     0.000004  f :     0.000036
      f+1     :     0.000002
      f-1     :     0.000004
      f+2     :     0.000002
      f-2     :     0.000005
      f+3     :     0.000008
      f-3     :     0.000010

SPIN
  0 C s       :     0.000000  s :     0.000000
      pz      :     0.000000  p :     0.000000
      px      :     0.000000
      py      :     0.000000
      dz2     :     0.000000  d :     0.000000
      dxz     :     0.000000
      dyz     :     0.000000
      dx2y2   :     0.000000
      dxy     :     0.000000
      f0      :     0.000000  f :     0.000000
      f+1     :     0.000000
      f-1     :     0.000000
      f+2     :     0.000000
      f-2     :     0.000000
      f+3     :     0.000000
      f-3     :     0.000000
  1 H s       :     0.000000  s :     0.000000
      pz      :     0.000000  p :     0.000000
      px      :     0.000000
      py      :     0.000000
      dz2     :     0.000000  d :     0.000000
      dxz     :     0.000000
      dyz     :     0.000000
      dx2y2   :     0.000000
      dxy     :     0.000000
  2 H s       :     0.000000  s :     0.000000
      pz      :     0.000000  p :     0.000000
      px      :     0.000000
      py      :     0.000000
      dz2     :     0.000000  d :     0.000000
      dxz     :     0.000000
      dyz     :     0.000000
      dx2y2   :     0.000000
      dxy     :     0.000000
  3 H s       :     0.000000  s :     0.000000
      pz      :     0.000000  p :     0.000000
      px      :     0.000000
      py      :     0.000000
      dz2     :     0.000000  d :     0.000000
      dxz     :     0.000000
      dyz     :     0.000000
      dx2y2   :     0.000000
      dxy     :     0.000000
  4 F s       :     0.000000  s :     0.000000
      pz      :     0.000000  p :     0.000000
      px      :     0.000000
      py      :     0.000000
      dz2     :     0.000000  d :     0.000000
      dxz     :     0.000000
      dyz     :     0.000000
      dx2y2   :     0.000000
      dxy     :     0.000000
      f0      :     0.000000  f :     0.000000
      f+1     :     0.000000
      f-1     :     0.000000
      f+2     :     0.000000
      f-2     :     0.000000
      f+3     :     0.000000
      f-3     :     0.000000


                     *******************************
                     * LOEWDIN POPULATION ANALYSIS *
                     *******************************

-------------------------------------------
LOEWDIN ATOMIC CHARGES AND SPIN POPULATIONS
-------------------------------------------
   0 C :    1.062999    0.000000
   1 H :   -0.203416    0.000000
   2 H :   -0.202946    0.000000
   3 H :   -0.202686    0.000000
   4 F :   -0.453951    0.000000

----------------------------------------------------
LOEWDIN REDUCED ORBITAL CHARGES AND SPIN POPULATIONS
----------------------------------------------------
CHARGE
  0 C s       :     2.614363  s :     2.614363
      pz      :     0.915494  p :     2.143707
      px      :     0.772966
      py      :     0.455247
      dz2     :     0.053860  d :     0.150762
      dxz     :     0.051566
      dyz     :     0.015904
      dx2y2   :     0.007850
      dxy     :     0.021582
      f0      :     0.003030  f :     0.028170
      f+1     :     0.009101
      f-1     :     0.003415
      f+2     :     0.001477
      f-2     :     0.003328
      f+3     :     0.000160
      f-3     :     0.007659
  1 H s       :     0.698975  s :     0.698975
      pz      :     0.090013  p :     0.318681
      px      :     0.147842
      py      :     0.080826
      dz2     :     0.012968  d :     0.185760
      dxz     :     0.067111
      dyz     :     0.021503
      dx2y2   :     0.035596
      dxy     :     0.048581
  2 H s       :     0.698832  s :     0.698832
      pz      :     0.148593  p :     0.318489
      px      :     0.103356
      py      :     0.066540
      dz2     :     0.078552  d :     0.185625
      dxz     :     0.043824
      dyz     :     0.025084
      dx2y2   :     0.015492
      dxy     :     0.022673
  3 H s       :     0.698651  s :     0.698651
      pz      :     0.160240  p :     0.318520
      px      :     0.090165
      py      :     0.068116
      dz2     :     0.076709  d :     0.185515
      dxz     :     0.052078
      dyz     :     0.032916
      dx2y2   :     0.007326
      dxy     :     0.016486
  4 F s       :     3.998062  s :     3.998062
      pz      :     1.996549  p :     5.455763
      px      :     1.866416
      py      :     1.592798
      dz2     :     0.000018  d :     0.000091
      dxz     :     0.000003
      dyz     :     0.000008
      dx2y2   :     0.000024
      dxy     :     0.000039
      f0      :     0.000004  f :     0.000035
      f+1     :     0.000002
      f-1     :     0.000004
      f+2     :     0.000002
      f-2     :     0.000005
      f+3     :     0.000008
      f-3     :     0.000010

SPIN
  0 C s       :     0.000000  s :     0.000000
      pz      :     0.000000  p :     0.000000
      px      :     0.000000
      py      :     0.000000
      dz2     :     0.000000  d :     0.000000
      dxz     :     0.000000
      dyz     :     0.000000
      dx2y2   :     0.000000
      dxy     :     0.000000
      f0      :     0.000000  f :     0.000000
      f+1     :     0.000000
      f-1     :     0.000000
      f+2     :     0.000000
      f-2     :     0.000000
      f+3     :     0.000000
      f-3     :     0.000000
  1 H s       :     0.000000  s :     0.000000
      pz      :     0.000000  p :     0.000000
      px      :     0.000000
      py      :     0.000000
      dz2     :     0.000000  d :     0.000000
      dxz     :     0.000000
      dyz     :     0.000000
      dx2y2   :     0.000000
      dxy     :     0.000000
  2 H s       :     0.000000  s :     0.000000
      pz      :     0.000000  p :     0.000000
      px      :     0.000000
      py      :     0.000000
      dz2     :     0.000000  d :     0.000000
      dxz     :     0.000000
      dyz     :     0.000000
      dx2y2   :     0.000000
      dxy     :     0.000000
  3 H s       :     0.000000  s :     0.000000
      pz      :     0.000000  p :     0.000000
      px      :     0.000000
      py      :     0.000000
      dz2     :     0.000000  d :     0.000000
      dxz     :     0.000000
      dyz     :     0.000000
      dx2y2   :     0.000000
      dxy     :     0.000000
  4 F s       :     0.000000  s :     0.000000
      pz      :     0.000000  p :     0.000000
      px      :     0.000000
      py      :     0.000000
      dz2     :     0.000000  d :     0.000000
      dxz     :     0.000000
      dyz     :     0.000000
      dx2y2   :     0.000000
      dxy     :     0.000000
      f0      :     0.000000  f :     0.000000
      f+1     :     0.000000
      f-1     :     0.000000
      f+2     :     0.000000
      f-2     :     0.000000
      f+3     :     0.000000
      f-3     :     0.000000


                      *****************************
                      * MAYER POPULATION ANALYSIS *
                      *****************************

  NA   - Mulliken gross atomic population
  ZA   - Total nuclear charge
  QA   - Mulliken gross atomic charge
  VA   - Mayer's total valence
  BVA  - Mayer's bonded valence
  FA   - Mayer's free valence

  ATOM       NA         ZA         QA         VA         BVA        FA
  0 C      6.7694     6.0000    -0.7694     3.0667     3.0667     0.0000
  1 H      0.6045     1.0000     0.3955     0.8891     0.8891     0.0000
  2 H      0.5805     1.0000     0.4195     0.8514     0.8514     0.0000
  3 H      0.5844     1.0000     0.4156     0.8564     0.8564     0.0000
  4 F      9.4611     9.0000    -0.4611     0.7878     0.7878     0.0000

  Mayer bond orders larger than 0.100000
B(  0-C ,  1-H ) :   0.8017 B(  0-C ,  2-H ) :   0.7666 B(  0-C ,  3-H ) :   0.7724 
B(  0-C ,  4-F ) :   0.7260 

-------
TIMINGS
-------

Total SCF time: 0 days 0 hours 0 min 4 sec 

Total time                  ....       4.753 sec
Sum of individual times     ....       4.583 sec  ( 96.4%)

Fock matrix formation       ....       4.345 sec  ( 91.4%)
  XC integration            ....       0.577 sec  ( 13.3% of F)
    Basis function eval.    ....       0.115 sec  ( 20.0% of XC)
    Density eval.           ....       0.121 sec  ( 21.0% of XC)
    XC-Functional eval.     ....       0.028 sec  (  4.9% of XC)
    XC-Potential eval.      ....       0.301 sec  ( 52.2% of XC)
Diagonalization             ....       0.015 sec  (  0.3%)
Density matrix formation    ....       0.001 sec  (  0.0%)
Population analysis         ....       0.005 sec  (  0.1%)
Initial guess               ....       0.005 sec  (  0.1%)
Orbital Transformation      ....       0.000 sec  (  0.0%)
Orbital Orthonormalization  ....       0.004 sec  (  0.1%)
DIIS solution               ....       0.002 sec  (  0.1%)
Grid generation             ....       0.209 sec  (  4.4%)

-------------------------   --------------------
FINAL SINGLE POINT ENERGY      -139.521565809461
-------------------------   --------------------

                                *** OPTIMIZATION RUN DONE ***

                            ***************************************
                            *     ORCA property calculations      *
                            ***************************************

                                    ---------------------
                                    Active property flags
                                    ---------------------
   (+) Dipole Moment


------------------------------------------------------------------------------
                       ORCA ELECTRIC PROPERTIES CALCULATION
------------------------------------------------------------------------------

Dipole Moment Calculation                       ... on
Quadrupole Moment Calculation                   ... off
Polarizability Calculation                      ... off
GBWName                                         ... orca.gbw
Electron density file                           ... orca.scfp
The origin for moment calculation is the CENTER OF MASS  = (-1.525546, -1.194591  0.004752)

-------------
DIPOLE MOMENT
-------------
                                X             Y             Z
Electronic contribution:      2.45889      -4.41411       0.35411
Nuclear contribution   :     -4.32057       7.75357      -0.62203
                        -----------------------------------------
Total Dipole Moment    :     -1.86168       3.33946      -0.26792
                        -----------------------------------------
Magnitude (a.u.)       :      3.83270
Magnitude (Debye)      :      9.74195



--------------------
Rotational spectrum 
--------------------
 
Rotational constants in cm-1:     4.780061     0.098217     0.098216 
Rotational constants in MHz : 143302.636805  2944.457559  2944.447373 

 Dipole components along the rotational axes: 
x,y,z [a.u.] :     3.832700    -0.000111     0.000758 
x,y,z [Debye]:     9.741948    -0.000281     0.001928 

 

Timings for individual modules:

Sum of individual times         ...     3990.315 sec (=  66.505 min)
GTO integral calculation        ...        2.559 sec (=   0.043 min)   0.1 %
SCF iterations                  ...     3920.465 sec (=  65.341 min)  98.2 %
SCF Gradient evaluation         ...       66.251 sec (=   1.104 min)   1.7 %
Geometry relaxation             ...        1.040 sec (=   0.017 min)   0.0 %
                             ****ORCA TERMINATED NORMALLY****
TOTAL RUN TIME: 0 days 1 hours 6 minutes 30 seconds 554 msec
