
                                 *****************
                                 * O   R   C   A *
                                 *****************

           --- An Ab Initio, DFT and Semiempirical electronic structure package ---

                  #######################################################
                  #                        -***-                        #
                  #          Department of theory and spectroscopy      #
                  #               Directorship: Frank Neese             #
                  #        Max Planck Institute fuer Kohlenforschung    #
                  #                Kaiser Wilhelm Platz 1               #
                  #                 D-45470 Muelheim/Ruhr               #
                  #                      Germany                        #
                  #                                                     #
                  #                  All rights reserved                #
                  #                        -***-                        #
                  #######################################################


                         Program Version 4.2.1 -  RELEASE  -


 With contributions from (in alphabetic order):
   Daniel Aravena         : Magnetic Suceptibility
   Michael Atanasov       : Ab Initio Ligand Field Theory (pilot matlab implementation)
   Alexander A. Auer      : GIAO ZORA, VPT2
   Ute Becker             : Parallelization
   Giovanni Bistoni       : ED, misc. LED, open-shell LED, HFLD
   Martin Brehm           : Molecular dynamics
   Dmytro Bykov           : SCF Hessian
   Vijay G. Chilkuri      : MRCI spin determinant printing, contributions to CSF-ICE
   Dipayan Datta          : RHF DLPNO-CCSD density
   Achintya Kumar Dutta   : EOM-CC, STEOM-CC
   Dmitry Ganyushin       : Spin-Orbit,Spin-Spin,Magnetic field MRCI
   Miquel Garcia          : C-PCM Hessian, Gaussian charge scheme
   Yang Guo               : DLPNO-NEVPT2, CIM, IAO-localization
   Andreas Hansen         : Spin unrestricted coupled pair/coupled cluster methods
   Benjamin Helmich-Paris : CASSCF linear response (MC-RPA)
   Lee Huntington         : MR-EOM, pCC
   Robert Izsak           : Overlap fitted RIJCOSX, COSX-SCS-MP3, EOM
   Christian Kollmar      : KDIIS, OOCD, Brueckner-CCSD(T), CCSD density
   Simone Kossmann        : Meta GGA functionals, TD-DFT gradient, OOMP2, MP2 Hessian
   Martin Krupicka        : AUTO-CI
   Lucas Lang             : DCDCAS
   Dagmar Lenk            : GEPOL surface, SMD
   Dimitrios Liakos       : Extrapolation schemes; Compound Job, initial MDCI parallelization
   Dimitrios Manganas     : Further ROCIS development; embedding schemes
   Dimitrios Pantazis     : SARC Basis sets
   Taras Petrenko         : DFT Hessian,TD-DFT gradient, ASA, ECA, R-Raman, ABS, FL, XAS/XES, NRVS
   Peter Pinski           : DLPNO-MP2, DLPNO-MP2 Gradient
   Christoph Reimann      : Effective Core Potentials
   Marius Retegan         : Local ZFS, SOC
   Christoph Riplinger    : Optimizer, TS searches, QM/MM, DLPNO-CCSD(T), (RO)-DLPNO pert. Triples
   Tobias Risthaus        : Range-separated hybrids, TD-DFT gradient, RPA, STAB
   Michael Roemelt        : Original ROCIS implementation
   Masaaki Saitow         : Open-shell DLPNO-CCSD energy and density
   Barbara Sandhoefer     : DKH picture change effects
   Avijit Sen             : IP-ROCIS
   Kantharuban Sivalingam : CASSCF convergence, NEVPT2, FIC-MRCI
   Bernardo de Souza      : ESD, SOC TD-DFT
   Georgi Stoychev        : AutoAux, RI-MP2 NMR
   Willem Van den Heuvel  : Paramagnetic NMR
   Boris Wezisla          : Elementary symmetry handling
   Frank Wennmohs         : Technical directorship


 We gratefully acknowledge several colleagues who have allowed us to
 interface, adapt or use parts of their codes:
   Stefan Grimme, W. Hujo, H. Kruse,             : VdW corrections, initial TS optimization,
                  C. Bannwarth                     DFT functionals, gCP, sTDA/sTD-DF
   Ed Valeev, F. Pavosevic, A. Kumar             : LibInt (2-el integral package), F12 methods
   Garnet Chan, S. Sharma, J. Yang, R. Olivares  : DMRG
   Ulf Ekstrom                                   : XCFun DFT Library
   Mihaly Kallay                                 : mrcc  (arbitrary order and MRCC methods)
   Andreas Klamt, Michael Diedenhofen            : otool_cosmo (COSMO solvation model)
   Jiri Pittner, Ondrej Demel                    : Mk-CCSD
   Frank Weinhold                                : gennbo (NPA and NBO analysis)
   Christopher J. Cramer and Donald G. Truhlar   : smd solvation model
   Lars Goerigk                                  : TD-DFT with DH, B97 family of functionals
   V. Asgeirsson, H. Jonsson                     : NEB implementation
   FAccTs GmbH                                   : IRC, NEB, NEB-TS, Multilevel, MM, QM/MM, CI optimization
   S Lehtola, MJT Oliveira, MAL Marques          : LibXC Library


 Your calculation uses the libint2 library for the computation of 2-el integrals
 For citations please refer to: http://libint.valeyev.net

 Your ORCA version has been built with support for libXC version: 4.2.3
 For citations please refer to: https://tddft.org/programs/libxc/

 This ORCA versions uses:
   CBLAS   interface :  Fast vector & matrix operations
   LAPACKE interface :  Fast linear algebra routines
   SCALAPACK package :  Parallel linear algebra routines


----- Orbital basis set information -----
Your calculation utilizes the basis: 6-311G**
   H, Li - Ne  : R. Krishnan, J. S. Binkley, R. Seeger and J. A. Pople, J. Chem. Phys. 72, 650 (1980).
   Na - Ar     : A. D. McLean and G. S. Chandler J. Chem. Phys. 72, 5639, (1980).
   K  - Ca     : J.-P. Blaudeau, M. P. McGrath, L. A. Curtiss and L. Radom, J. Chem. Phys. 107, 5016 (1997).
   Ga - Kr     : L. A. Curtiss, M. P. McGrath, J.-P. Blandeau, N. E. Davis, R. C. Binning and L. Radom, J. Chem. Phys. 103, 6104 (1995).
   Pol./Diff.
   H, Li - Cl  : T. Clark, J. Chandrasekhar and P. v. R. Schleyer, J. Comp. Chem. 4, 294 (1983).
   H - Ne      : M. J. Frisch, J. A. Pople and J. S. Binkley, J. Chem. Phys. 80, 3265 (1984).

================================================================================
                                        WARNINGS
                       Please study these warnings very carefully!
================================================================================


WARNING: Geometry Optimization
  ===> : Switching off AutoStart
         For restart on a previous wavefunction, please use MOREAD

INFO   : the flag for use of LIBINT has been found!

================================================================================
                                       INPUT FILE
================================================================================
NAME = orca.inp
|  1> !RHF 6-311G** OPT
|  2> *xyz 0 1
|  3> C      0.26399   -0.46477   -0.00000
|  4> H     -0.68724    0.10613    0.00000
|  5> H      1.11931    0.24176   -0.00000
|  6> **                         ****END OF INPUT****
================================================================================

                       *****************************
                       * Geometry Optimization Run *
                       *****************************

Geometry optimization settings:
Update method            Update   .... BFGS
Choice of coordinates    CoordSys .... Z-matrix Internals
Initial Hessian          InHess   .... Almoef's Model

Convergence Tolerances:
Energy Change            TolE     ....  5.0000e-06 Eh
Max. Gradient            TolMAXG  ....  3.0000e-04 Eh/bohr
RMS Gradient             TolRMSG  ....  1.0000e-04 Eh/bohr
Max. Displacement        TolMAXD  ....  4.0000e-03 bohr
RMS Displacement         TolRMSD  ....  2.0000e-03 bohr
Strict Convergence                ....  False
------------------------------------------------------------------------------
                        ORCA OPTIMIZATION COORDINATE SETUP
------------------------------------------------------------------------------

The optimization will be done in new redundant internal coordinates
Making redundant internal coordinates   ...  (new redundants) done
Evaluating the initial hessian          ...  (Almloef) done
Evaluating the coordinates              ...  done
Calculating the B-matrix                .... done
Calculating the G-matrix                .... done
Diagonalizing the G-matrix              .... done
The first mode is                       ....    0
The number of degrees of freedom        ....    3

    -----------------------------------------------------------------
                    Redundant Internal Coordinates


    -----------------------------------------------------------------
         Definition                    Initial Value    Approx d2E/dq
    -----------------------------------------------------------------
      1. B(H   1,C   0)                  1.1094         0.335331   
      2. B(H   2,C   0)                  1.1094         0.335336   
      3. A(H   1,C   0,H   2)          109.4709         0.284433   
    -----------------------------------------------------------------

Number of atoms                         .... 3
Number of degrees of freedom            .... 3

         *************************************************************
         *                GEOMETRY OPTIMIZATION CYCLE   1            *
         *************************************************************
---------------------------------
CARTESIAN COORDINATES (ANGSTROEM)
---------------------------------
  C      0.263990   -0.464770   -0.000000
  H     -0.687240    0.106130    0.000000
  H      1.119310    0.241760   -0.000000

----------------------------
CARTESIAN COORDINATES (A.U.)
----------------------------
  NO LB      ZA    FRAG     MASS         X           Y           Z
   0 C     6.0000    0    12.011    0.498869   -0.878288   -0.000000
   1 H     1.0000    0     1.008   -1.298695    0.200557    0.000000
   2 H     1.0000    0     1.008    2.115189    0.456860   -0.000000

--------------------------------
INTERNAL COORDINATES (ANGSTROEM)
--------------------------------
 C      0   0   0     0.000000000000     0.00000000     0.00000000
 H      1   0   0     1.109398631196     0.00000000     0.00000000
 H      1   2   0     1.109394854549   109.47094193     0.00000000

---------------------------
INTERNAL COORDINATES (A.U.)
---------------------------
 C      0   0   0     0.000000000000     0.00000000     0.00000000
 H      1   0   0     2.096459586308     0.00000000     0.00000000
 H      1   2   0     2.096452449479   109.47094193     0.00000000

---------------------
BASIS SET INFORMATION
---------------------
There are 2 groups of distinct atoms

 Group   1 Type C   : 11s5p1d contracted to 4s3p1d pattern {6311/311/1}
 Group   2 Type H   : 5s1p contracted to 3s1p pattern {311/1}

Atom   0C    basis set group =>   1
Atom   1H    basis set group =>   2
Atom   2H    basis set group =>   2
------------------------------------------------------------------------------
                           ORCA GTO INTEGRAL CALCULATION
------------------------------------------------------------------------------

                         BASIS SET STATISTICS AND STARTUP INFO

 # of primitive gaussian shells          ...   29
 # of primitive gaussian functions       ...   47
 # of contracted shells                  ...   16
 # of contracted basis functions         ...   30
 Highest angular momentum                ...    2
 Maximum contraction depth               ...    6
 Integral package used                   ... LIBINT
 Integral threshhold            Thresh   ...  2.500e-11
 Primitive cut-off              TCut     ...  2.500e-12


------------------------------ INTEGRAL EVALUATION ----------------------------


 * One electron integrals 
 Pre-screening matrix                    ... done
 Shell pair data                         ... done (   0.000 sec)

-------------------------------------------------------------------------------
                                 ORCA SCF
-------------------------------------------------------------------------------

------------
SCF SETTINGS
------------
Hamiltonian:
 Ab initio Hamiltonian  Method          .... Hartree-Fock(GTOs)


General Settings:
 Integral files         IntName         .... orca
 Hartree-Fock type      HFTyp           .... RHF
 Total Charge           Charge          ....    0
 Multiplicity           Mult            ....    1
 Number of Electrons    NEL             ....    8
 Basis Dimension        Dim             ....   30
 Nuclear Repulsion      ENuc            ....      6.0160448782 Eh

Convergence Acceleration:
 DIIS                   CNVDIIS         .... on
   Start iteration      DIISMaxIt       ....    12
   Startup error        DIISStart       ....  0.200000
   # of expansion vecs  DIISMaxEq       ....     5
   Bias factor          DIISBfac        ....   1.050
   Max. coefficient     DIISMaxC        ....  10.000
 Newton-Raphson         CNVNR           .... off
 SOSCF                  CNVSOSCF        .... on
   Start iteration      SOSCFMaxIt      ....   150
   Startup grad/error   SOSCFStart      ....  0.003300
 Level Shifting         CNVShift        .... on
   Level shift para.    LevelShift      ....    0.2500
   Turn off err/grad.   ShiftErr        ....    0.0010
 Zerner damping         CNVZerner       .... off
 Static damping         CNVDamp         .... on
   Fraction old density DampFac         ....    0.7000
   Max. Damping (<1)    DampMax         ....    0.9800
   Min. Damping (>=0)   DampMin         ....    0.0000
   Turn off err/grad.   DampErr         ....    0.1000
 Fernandez-Rico         CNVRico         .... off

SCF Procedure:
 Maximum # iterations   MaxIter         ....   125
 SCF integral mode      SCFMode         .... Direct
   Integral package                     .... LIBINT
 Reset frequency        DirectResetFreq ....    20
 Integral Threshold     Thresh          ....  2.500e-11 Eh
 Primitive CutOff       TCut            ....  2.500e-12 Eh

Convergence Tolerance:
 Convergence Check Mode ConvCheckMode   .... Total+1el-Energy
 Convergence forced     ConvForced      .... 0
 Energy Change          TolE            ....  1.000e-08 Eh
 1-El. energy change                    ....  1.000e-05 Eh
 Orbital Gradient       TolG            ....  1.000e-05
 Orbital Rotation angle TolX            ....  1.000e-05
 DIIS Error             TolErr          ....  5.000e-07


Diagonalization of the overlap matrix:
Smallest eigenvalue                        ... 2.568e-02
Time for diagonalization                   ...    0.063 sec
Threshold for overlap eigenvalues          ... 1.000e-08
Number of eigenvalues below threshold      ... 0
Time for construction of square roots      ...    0.000 sec
Total time needed                          ...    0.063 sec

-------------------
DFT GRID GENERATION
-------------------

General Integration Accuracy     IntAcc      ...  4.340
Radial Grid Type                 RadialGrid  ... Gauss-Chebyshev
Angular Grid (max. acc.)         AngularGrid ... Lebedev-110
Angular grid pruning method      GridPruning ... 3 (G Style)
Weight generation scheme         WeightScheme... Becke
Basis function cutoff            BFCut       ...    1.0000e-11
Integration weight cutoff        WCut        ...    1.0000e-14
Grids for H and He will be reduced by one unit

# of grid points (after initial pruning)     ...   3244 (   0.0 sec)
# of grid points (after weights+screening)   ...   3204 (   0.0 sec)
nearest neighbour list constructed           ...    0.0 sec
Grid point re-assignment to atoms done       ...    0.0 sec
Grid point division into batches done        ...    0.0 sec
Reduced shell lists constructed in    0.0 sec

Total number of grid points                  ...     3204
Total number of batches                      ...       52
Average number of points per batch           ...       61
Average number of grid points per atom       ...     1068
Average number of shells per batch           ...    14.89 (93.04%)
Average number of basis functions per batch  ...    28.06 (93.52%)
Average number of large shells per batch     ...    14.02 (94.17%)
Average number of large basis fcns per batch ...    26.51 (94.49%)
Maximum spatial batch extension              ...  16.14, 25.60, 31.36 au
Average spatial batch extension              ...   4.98,  7.31,  6.65 au

Time for grid setup =    0.011 sec

------------------------------
INITIAL GUESS: MODEL POTENTIAL
------------------------------
Loading Hartree-Fock densities                     ... done
Calculating cut-offs                               ... done
Setting up the integral package                    ... done
Initializing the effective Hamiltonian             ... done
Starting the Coulomb interaction                   ... done (   0.0 sec)
Reading the grid                                   ... done
Mapping shells                                     ... done
Starting the XC term evaluation                    ... done (   0.0 sec)
Transforming the Hamiltonian                       ... done (   0.0 sec)
Diagonalizing the Hamiltonian                      ... done (   0.0 sec)
Back transforming the eigenvectors                 ... done (   0.0 sec)
Now organizing SCF variables                       ... done
                      ------------------
                      INITIAL GUESS DONE (   0.1 sec)
                      ------------------
--------------
SCF ITERATIONS
--------------
ITER       Energy         Delta-E        Max-DP      RMS-DP      [F,P]     Damp
               ***  Starting incremental Fock matrix formation  ***
  0    -38.8647971955   0.000000000000 0.02742690  0.00159874  0.1435675 0.7000
  1    -38.8716661226  -0.006868927073 0.01980591  0.00127082  0.0994350 0.7000
                               ***Turning on DIIS***
  2    -38.8762570820  -0.004590959420 0.03851293  0.00278003  0.0689433 0.0000
  3    -38.8738893132   0.002367768798 0.01984847  0.00103589  0.0122242 0.0000
                      *** Initiating the SOSCF procedure ***
                           *** Shutting down DIIS ***
                      *** Re-Reading the Fockian *** 
                      *** Removing any level shift *** 
ITER      Energy       Delta-E        Grad      Rot      Max-DP    RMS-DP
  4    -38.88658537  -0.0126960605  0.001040  0.001040  0.003433  0.000208
               *** Restarting incremental Fock matrix formation ***
  5    -38.88626448   0.0003208912  0.000477  0.000877  0.001205  0.000105
  6    -38.88626742  -0.0000029385  0.000220  0.000695  0.000930  0.000084
  7    -38.88626804  -0.0000006195  0.000023  0.000045  0.000179  0.000008
  8    -38.88626805  -0.0000000057  0.000008  0.000022  0.000079  0.000004
                 **** Energy Check signals convergence ****
              ***Rediagonalizing the Fockian in SOSCF/NRSCF***

               *****************************************************
               *                     SUCCESS                       *
               *           SCF CONVERGED AFTER   9 CYCLES          *
               *****************************************************


----------------
TOTAL SCF ENERGY
----------------

Total Energy       :          -38.88626805 Eh           -1058.14915 eV

Components:
Nuclear Repulsion  :            6.01604488 Eh             163.70490 eV
Electronic Energy  :          -44.90231293 Eh           -1221.85405 eV
One Electron Energy:          -63.55465481 Eh           -1729.41008 eV
Two Electron Energy:           18.65234188 Eh             507.55603 eV

Virial components:
Potential Energy   :          -77.75069388 Eh           -2115.70394 eV
Kinetic Energy     :           38.86442583 Eh            1057.55479 eV
Virial Ratio       :            2.00056201


---------------
SCF CONVERGENCE
---------------

  Last Energy change         ...   -1.0425e-09  Tolerance :   1.0000e-08
  Last MAX-Density change    ...    5.0164e-06  Tolerance :   1.0000e-07
  Last RMS-Density change    ...    3.4158e-07  Tolerance :   5.0000e-09
  Last Orbital Gradient      ...    1.4696e-06  Tolerance :   1.0000e-05
  Last Orbital Rotation      ...    1.6393e-06  Tolerance :   1.0000e-05

             **** THE GBW FILE WAS UPDATED (orca.gbw) ****
             **** DENSITY FILE WAS UPDATED (orca.scfp) ****
             **** ENERGY FILE WAS UPDATED (orca.en.tmp) ****
             **** THE GBW FILE WAS UPDATED (orca.gbw) ****
             **** DENSITY FILE WAS UPDATED (orca.scfp) ****
----------------
ORBITAL ENERGIES
----------------

  NO   OCC          E(Eh)            E(eV) 
   0   2.0000     -11.284438      -307.0652 
   1   2.0000      -0.884187       -24.0599 
   2   2.0000      -0.575438       -15.6585 
   3   2.0000      -0.380919       -10.3653 
   4   0.0000       0.059199         1.6109 
   5   0.0000       0.162808         4.4302 
   6   0.0000       0.220557         6.0017 
   7   0.0000       0.445372        12.1192 
   8   0.0000       0.505209        13.7474 
   9   0.0000       0.638067        17.3627 
  10   0.0000       0.642344        17.4791 
  11   0.0000       0.787569        21.4308 
  12   0.0000       0.843386        22.9497 
  13   0.0000       1.288187        35.0533 
  14   0.0000       1.323894        36.0250 
  15   0.0000       1.419212        38.6187 
  16   0.0000       1.685999        45.8784 
  17   0.0000       1.745308        47.4923 
  18   0.0000       1.857546        50.5464 
  19   0.0000       2.077446        56.5302 
  20   0.0000       2.154694        58.6322 
  21   0.0000       2.331906        63.4544 
  22   0.0000       2.598055        70.6967 
  23   0.0000       2.635396        71.7128 
  24   0.0000       2.808387        76.4201 
  25   0.0000       2.843119        77.3652 
  26   0.0000       3.014720        82.0347 
  27   0.0000       3.277303        89.1800 
  28   0.0000       4.008134       109.0669 
  29   0.0000      24.816373       675.2878 

                    ********************************
                    * MULLIKEN POPULATION ANALYSIS *
                    ********************************

-----------------------
MULLIKEN ATOMIC CHARGES
-----------------------
   0 C :   -0.196671
   1 H :    0.098335
   2 H :    0.098336
Sum of atomic charges:   -0.0000000

--------------------------------
MULLIKEN REDUCED ORBITAL CHARGES
--------------------------------
  0 C s       :     3.646437  s :     3.646437
      pz      :     0.000000  p :     2.518663
      px      :     0.992739
      py      :     1.525925
      dz2     :     0.006791  d :     0.031571
      dxz     :     0.000000
      dyz     :     0.000000
      dx2y2   :     0.000512
      dxy     :     0.024267
  1 H s       :     0.875796  s :     0.875796
      pz      :     0.000000  p :     0.025869
      px      :     0.016013
      py      :     0.009856
  2 H s       :     0.875795  s :     0.875795
      pz      :     0.000000  p :     0.025869
      px      :     0.014652
      py      :     0.011217


                     *******************************
                     * LOEWDIN POPULATION ANALYSIS *
                     *******************************

----------------------
LOEWDIN ATOMIC CHARGES
----------------------
   0 C :    0.060454
   1 H :   -0.030226
   2 H :   -0.030227

-------------------------------
LOEWDIN REDUCED ORBITAL CHARGES
-------------------------------
  0 C s       :     3.263334  s :     3.263334
      pz      :     0.000000  p :     2.633766
      px      :     1.049328
      py      :     1.584438
      dz2     :     0.008725  d :     0.042446
      dxz     :     0.000000
      dyz     :     0.000000
      dx2y2   :     0.001251
      dxy     :     0.032470
  1 H s       :     0.954297  s :     0.954297
      pz      :     0.000000  p :     0.075930
      px      :     0.040554
      py      :     0.035375
  2 H s       :     0.954297  s :     0.954297
      pz      :     0.000000  p :     0.075930
      px      :     0.035500
      py      :     0.040431


                      *****************************
                      * MAYER POPULATION ANALYSIS *
                      *****************************

  NA   - Mulliken gross atomic population
  ZA   - Total nuclear charge
  QA   - Mulliken gross atomic charge
  VA   - Mayer's total valence
  BVA  - Mayer's bonded valence
  FA   - Mayer's free valence

  ATOM       NA         ZA         QA         VA         BVA        FA
  0 C      6.1967     6.0000    -0.1967     1.9257     1.9257    -0.0000
  1 H      0.9017     1.0000     0.0983     0.9553     0.9553    -0.0000
  2 H      0.9017     1.0000     0.0983     0.9553     0.9553     0.0000

  Mayer bond orders larger than 0.100000
B(  0-C ,  1-H ) :   0.9628 B(  0-C ,  2-H ) :   0.9628 

-------
TIMINGS
-------

Total SCF time: 0 days 0 hours 0 min 1 sec 

Total time                  ....       1.000 sec
Sum of individual times     ....       0.778 sec  ( 77.8%)

Fock matrix formation       ....       0.652 sec  ( 65.2%)
Diagonalization             ....       0.001 sec  (  0.1%)
Density matrix formation    ....       0.000 sec  (  0.0%)
Population analysis         ....       0.000 sec  (  0.0%)
Initial guess               ....       0.112 sec  ( 11.2%)
Orbital Transformation      ....       0.000 sec  (  0.0%)
Orbital Orthonormalization  ....       0.000 sec  (  0.0%)
DIIS solution               ....       0.000 sec  (  0.0%)
SOSCF solution              ....       0.001 sec  (  0.1%)

-------------------------   --------------------
FINAL SINGLE POINT ENERGY       -38.886268047308
-------------------------   --------------------

------------------------------------------------------------------------------
                         ORCA SCF GRADIENT CALCULATION
------------------------------------------------------------------------------

Gradient of the Hartree-Fock SCF energy:
Hartree-Fock type                ... RHF
Number of operators              ...    1
Number of atoms                  ...    3
Basis set dimensions             ...   30
Integral neglect threshold       ... 2.5e-11
Integral primitive cutoff        ... 2.5e-12

Nuclear repulsion gradient       ... done
One Electron Gradient            ... done
Pre-screening matrix             ... done
Starting the two electron gradient:
Two electron gradient done

------------------
CARTESIAN GRADIENT
------------------

   1   C   :   -0.000281105    0.003769238   -0.000000000
   2   H   :   -0.012760077   -0.002852482    0.000000000
   3   H   :    0.013041182   -0.000916756    0.000000000

Difference to translation invariance:
           :   -0.0000000000    0.0000000000   -0.0000000000

Norm of the cartesian gradient     ...    0.0188720760
RMS gradient                       ...    0.0062906920
MAX gradient                       ...    0.0130411816

-------
TIMINGS
-------

Total SCF gradient time            ...        0.139 sec

One electron gradient       ....       0.001 sec  (  0.9%)
Prescreening matrices       ....       0.004 sec  (  2.6%)
Two electron gradient       ....       0.026 sec  ( 19.0%)
------------------------------------------------------------------------------
                         ORCA GEOMETRY RELAXATION STEP
------------------------------------------------------------------------------

Reading the OPT-File                    .... done
Getting information on internals        .... done
Copying old internal coords+grads       .... done
Making the new internal coordinates     .... (new redundants).... done
Validating the new internal coordinates .... (new redundants).... done
Calculating the B-matrix                .... done
Calculating the G,G- and P matrices     .... done
Transforming gradient to internals      .... done
Projecting the internal gradient        .... done
Number of atoms                         ....   3
Number of internal coordinates          ....   3
Current Energy                          ....   -38.886268047 Eh
Current gradient norm                   ....     0.018872076 Eh/bohr
Maximum allowed component of the step   ....  0.300
Current trust radius                    ....  0.300
Evaluating the initial hessian          ....  (Almloef) done
Projecting the Hessian                  .... done
Forming the augmented Hessian           .... done
Diagonalizing the augmented Hessian     .... done
Last element of RFO vector              ....  0.997044876
Lowest eigenvalues of augmented Hessian:
 -0.001779478  0.285666774  0.335333424
Length of the computed step             ....  0.077049007
The final length of the internal step   ....  0.077049007
Converting the step to cartesian space:
 Initial RMS(Int)=    0.0444842649
Transforming coordinates:
 Iter   0:  RMS(Cart)=    0.0316090654 RMS(Int)=    0.0444411055
 Iter   1:  RMS(Cart)=    0.0004322382 RMS(Int)=    0.0010851417
 Iter   2:  RMS(Cart)=    0.0000189242 RMS(Int)=    0.0000283251
 Iter   3:  RMS(Cart)=    0.0000004445 RMS(Int)=    0.0000010766
 Iter   4:  RMS(Cart)=    0.0000000209 RMS(Int)=    0.0000000365
done
Storing new coordinates                 .... done

                                .--------------------.
          ----------------------|Geometry convergence|-------------------------
          Item                value                   Tolerance       Converged
          ---------------------------------------------------------------------
          RMS gradient        0.0133716186            0.0001000000      NO
          MAX gradient        0.0188936712            0.0003000000      NO
          RMS step            0.0444842649            0.0020000000      NO
          MAX step            0.0660127966            0.0040000000      NO
          ........................................................
          Max(Bonds)      0.0149      Max(Angles)    3.78
          Max(Dihed)        0.00      Max(Improp)    0.00
          ---------------------------------------------------------------------

The optimization has not yet converged - more geometry cycles are needed


    ---------------------------------------------------------------------------
                         Redundant Internal Coordinates
                            (Angstroem and degrees)

        Definition                    Value    dE/dq     Step     New-Value
    ----------------------------------------------------------------------------
     1. B(H   1,C   0)                1.1094  0.009473 -0.0149    1.0945   
     2. B(H   2,C   0)                1.1094  0.009471 -0.0149    1.0945   
     3. A(H   1,C   0,H   2)          109.47  0.018894   -3.78    105.69   
    ----------------------------------------------------------------------------

         *************************************************************
         *                GEOMETRY OPTIMIZATION CYCLE   2            *
         *************************************************************
---------------------------------
CARTESIAN COORDINATES (ANGSTROEM)
---------------------------------
  C      0.265015   -0.478441    0.000000
  H     -0.654366    0.115471    0.000000
  H      1.085411    0.246089    0.000000

----------------------------
CARTESIAN COORDINATES (A.U.)
----------------------------
  NO LB      ZA    FRAG     MASS         X           Y           Z
   0 C     6.0000    0    12.011    0.500806   -0.904122    0.000000
   1 H     1.0000    0     1.008   -1.236572    0.218209    0.000000
   2 H     1.0000    0     1.008    2.051129    0.465041    0.000000

--------------------------------
INTERNAL COORDINATES (ANGSTROEM)
--------------------------------
 C      0   0   0     0.000000000000     0.00000000     0.00000000
 H      1   0   0     1.094528519988     0.00000000     0.00000000
 H      1   2   0     1.094528595769   105.68868720     0.00000000

---------------------------
INTERNAL COORDINATES (A.U.)
---------------------------
 C      0   0   0     0.000000000000     0.00000000     0.00000000
 H      1   0   0     2.068359148544     0.00000000     0.00000000
 H      1   2   0     2.068359291748   105.68868720     0.00000000


Diagonalization of the overlap matrix:
Smallest eigenvalue                        ... 2.306e-02
Time for diagonalization                   ...    0.000 sec
Threshold for overlap eigenvalues          ... 1.000e-08
Number of eigenvalues below threshold      ... 0
Time for construction of square roots      ...    0.000 sec
Total time needed                          ...    0.001 sec

--------------
SCF ITERATIONS
--------------
ITER       Energy         Delta-E        Max-DP      RMS-DP      [F,P]     Damp
               ***  Starting incremental Fock matrix formation  ***
  0    -38.8871561936   0.000000000000 0.00190818  0.00012751  0.0105452 0.7000
                      *** Initiating the SOSCF procedure ***
                      *** Re-Reading the Fockian *** 
                      *** Removing any level shift *** 
ITER      Energy       Delta-E        Grad      Rot      Max-DP    RMS-DP
  1    -38.88720354  -0.0000473495  0.001098  0.001098  0.006173  0.000407
               *** Restarting incremental Fock matrix formation ***
  2    -38.88733799  -0.0001344419  0.001083  0.001195  0.002366  0.000182
  3    -38.88734627  -0.0000082850  0.000382  0.000643  0.001023  0.000090
  4    -38.88734731  -0.0000010384  0.000046  0.000072  0.000117  0.000008
  5    -38.88734733  -0.0000000223  0.000017  0.000042  0.000093  0.000006
  6    -38.88734733  -0.0000000034  0.000004  0.000006  0.000027  0.000001
                 **** Energy Check signals convergence ****
              ***Rediagonalizing the Fockian in SOSCF/NRSCF***

               *****************************************************
               *                     SUCCESS                       *
               *           SCF CONVERGED AFTER   7 CYCLES          *
               *****************************************************

Total Energy       :          -38.88734733 Eh           -1058.17852 eV
  Last Energy change         ...   -1.2584e-10  Tolerance :   1.0000e-08
  Last MAX-Density change    ...    6.4411e-06  Tolerance :   1.0000e-07
             **** THE GBW FILE WAS UPDATED (orca.gbw) ****
             **** DENSITY FILE WAS UPDATED (orca.scfp) ****
             **** ENERGY FILE WAS UPDATED (orca.en.tmp) ****
             **** THE GBW FILE WAS UPDATED (orca.gbw) ****
             **** DENSITY FILE WAS UPDATED (orca.scfp) ****
Total SCF time: 0 days 0 hours 0 min 0 sec 

-------------------------   --------------------
FINAL SINGLE POINT ENERGY       -38.887347334250
-------------------------   --------------------

------------------------------------------------------------------------------
                         ORCA SCF GRADIENT CALCULATION
------------------------------------------------------------------------------

Gradient of the Hartree-Fock SCF energy:
Hartree-Fock type                ... RHF
Number of operators              ...    1
Number of atoms                  ...    3
Basis set dimensions             ...   30
Integral neglect threshold       ... 2.5e-11
Integral primitive cutoff        ... 2.5e-12

Nuclear repulsion gradient       ... done
One Electron Gradient            ... done
Pre-screening matrix             ... done
Starting the two electron gradient:
Two electron gradient done

------------------
CARTESIAN GRADIENT
------------------

   1   C   :   -0.000549586    0.007319724   -0.000000000
   2   H   :   -0.000401492   -0.003710651    0.000000000
   3   H   :    0.000951078   -0.003609073    0.000000000

Difference to translation invariance:
           :    0.0000000000    0.0000000000    0.0000000000

Norm of the cartesian gradient     ...    0.0090410448
RMS gradient                       ...    0.0030136816
MAX gradient                       ...    0.0073197241

-------
TIMINGS
-------

Total SCF gradient time            ...        0.136 sec

One electron gradient       ....       0.001 sec  (  0.9%)
Prescreening matrices       ....       0.004 sec  (  2.7%)
Two electron gradient       ....       0.026 sec  ( 19.1%)
------------------------------------------------------------------------------
                         ORCA GEOMETRY RELAXATION STEP
------------------------------------------------------------------------------

Reading the OPT-File                    .... done
Getting information on internals        .... done
Copying old internal coords+grads       .... done
Making the new internal coordinates     .... (new redundants).... done
Validating the new internal coordinates .... (new redundants).... done
Calculating the B-matrix                .... done
Calculating the G,G- and P matrices     .... done
Transforming gradient to internals      .... done
Projecting the internal gradient        .... done
Number of atoms                         ....   3
Number of internal coordinates          ....   3
Current Energy                          ....   -38.887347334 Eh
Current gradient norm                   ....     0.009041045 Eh/bohr
Maximum allowed component of the step   ....  0.300
Current trust radius                    ....  0.300
Updating the Hessian (BFGS)             .... done
Forming the augmented Hessian           .... done
Diagonalizing the augmented Hessian     .... done
Last element of RFO vector              ....  0.999314738
Lowest eigenvalues of augmented Hessian:
 -0.000265066  0.186551215  0.335333434
Length of the computed step             ....  0.037039626
The final length of the internal step   ....  0.037039626
Converting the step to cartesian space:
 Initial RMS(Int)=    0.0213848378
Transforming coordinates:
 Iter   0:  RMS(Cart)=    0.0129346078 RMS(Int)=    0.0213869255
 Iter   1:  RMS(Cart)=    0.0001561419 RMS(Int)=    0.0002857820
 Iter   2:  RMS(Cart)=    0.0000020180 RMS(Int)=    0.0000036495
 Iter   3:  RMS(Cart)=    0.0000000542 RMS(Int)=    0.0000000949
done
Storing new coordinates                 .... done

                                .--------------------.
          ----------------------|Geometry convergence|-------------------------
          Item                value                   Tolerance       Converged
          ---------------------------------------------------------------------
          Energy change      -0.0010792869            0.0000050000      NO
          RMS gradient        0.0042108423            0.0001000000      NO
          MAX gradient        0.0068974121            0.0003000000      NO
          RMS step            0.0213848378            0.0020000000      NO
          MAX step            0.0366934802            0.0040000000      NO
          ........................................................
          Max(Bonds)      0.0019      Max(Angles)    2.10
          Max(Dihed)        0.00      Max(Improp)    0.00
          ---------------------------------------------------------------------

The optimization has not yet converged - more geometry cycles are needed


    ---------------------------------------------------------------------------
                         Redundant Internal Coordinates
                            (Angstroem and degrees)

        Definition                    Value    dE/dq     Step     New-Value
    ----------------------------------------------------------------------------
     1. B(H   1,C   0)                1.0945 -0.001676  0.0019    1.0964   
     2. B(H   2,C   0)                1.0945 -0.001676  0.0019    1.0964   
     3. A(H   1,C   0,H   2)          105.69  0.006897   -2.10    103.59   
    ----------------------------------------------------------------------------

         *************************************************************
         *                GEOMETRY OPTIMIZATION CYCLE   3            *
         *************************************************************
---------------------------------
CARTESIAN COORDINATES (ANGSTROEM)
---------------------------------
  C      0.265866   -0.489783    0.000000
  H     -0.644033    0.121950    0.000000
  H      1.074226    0.250953    0.000000

----------------------------
CARTESIAN COORDINATES (A.U.)
----------------------------
  NO LB      ZA    FRAG     MASS         X           Y           Z
   0 C     6.0000    0    12.011    0.502415   -0.925556    0.000000
   1 H     1.0000    0     1.008   -1.217045    0.230453    0.000000
   2 H     1.0000    0     1.008    2.029993    0.474232    0.000000

--------------------------------
INTERNAL COORDINATES (ANGSTROEM)
--------------------------------
 C      0   0   0     0.000000000000     0.00000000     0.00000000
 H      1   0   0     1.096418777796     0.00000000     0.00000000
 H      1   2   0     1.096419076022   103.58630576     0.00000000

---------------------------
INTERNAL COORDINATES (A.U.)
---------------------------
 C      0   0   0     0.000000000000     0.00000000     0.00000000
 H      1   0   0     2.071931218124     0.00000000     0.00000000
 H      1   2   0     2.071931781688   103.58630576     0.00000000


Diagonalization of the overlap matrix:
Smallest eigenvalue                        ... 2.252e-02
Time for diagonalization                   ...    0.000 sec
Threshold for overlap eigenvalues          ... 1.000e-08
Number of eigenvalues below threshold      ... 0
Time for construction of square roots      ...    0.000 sec
Total time needed                          ...    0.001 sec

--------------
SCF ITERATIONS
--------------
ITER       Energy         Delta-E        Max-DP      RMS-DP      [F,P]     Damp
               ***  Starting incremental Fock matrix formation  ***
                      *** Initiating the SOSCF procedure ***
                      *** Re-Reading the Fockian *** 
                      *** Removing any level shift *** 
ITER      Energy       Delta-E        Grad      Rot      Max-DP    RMS-DP
  0    -38.88745494 -38.8874549390  0.002737  0.002737  0.003728  0.000264
               *** Restarting incremental Fock matrix formation ***
  1    -38.88749457  -0.0000396360  0.001067  0.001167  0.002371  0.000180
  2    -38.88750110  -0.0000065217  0.000369  0.000607  0.001321  0.000100
  3    -38.88750191  -0.0000008152  0.000021  0.000032  0.000064  0.000006
                 **** Energy Check signals convergence ****
              ***Rediagonalizing the Fockian in SOSCF/NRSCF***

               *****************************************************
               *                     SUCCESS                       *
               *           SCF CONVERGED AFTER   4 CYCLES          *
               *****************************************************

Total Energy       :          -38.88750192 Eh           -1058.18272 eV
  Last Energy change         ...   -5.5806e-09  Tolerance :   1.0000e-08
  Last MAX-Density change    ...    1.9964e-05  Tolerance :   1.0000e-07
             **** THE GBW FILE WAS UPDATED (orca.gbw) ****
             **** DENSITY FILE WAS UPDATED (orca.scfp) ****
             **** ENERGY FILE WAS UPDATED (orca.en.tmp) ****
             **** THE GBW FILE WAS UPDATED (orca.gbw) ****
             **** DENSITY FILE WAS UPDATED (orca.scfp) ****
Total SCF time: 0 days 0 hours 0 min 0 sec 

-------------------------   --------------------
FINAL SINGLE POINT ENERGY       -38.887501917524
-------------------------   --------------------

------------------------------------------------------------------------------
                         ORCA SCF GRADIENT CALCULATION
------------------------------------------------------------------------------

Gradient of the Hartree-Fock SCF energy:
Hartree-Fock type                ... RHF
Number of operators              ...    1
Number of atoms                  ...    3
Basis set dimensions             ...   30
Integral neglect threshold       ... 2.5e-11
Integral primitive cutoff        ... 2.5e-12

Nuclear repulsion gradient       ... done
One Electron Gradient            ... done
Pre-screening matrix             ... done
Starting the two electron gradient:
Two electron gradient done

------------------
CARTESIAN GRADIENT
------------------

   1   C   :   -0.000179896    0.002394073   -0.000000000
   2   H   :    0.000912296   -0.001135358    0.000000000
   3   H   :   -0.000732400   -0.001258715    0.000000000

Difference to translation invariance:
           :    0.0000000000   -0.0000000000    0.0000000000

Norm of the cartesian gradient     ...    0.0031632333
RMS gradient                       ...    0.0010544111
MAX gradient                       ...    0.0023940733

-------
TIMINGS
-------

Total SCF gradient time            ...        0.136 sec

One electron gradient       ....       0.001 sec  (  0.9%)
Prescreening matrices       ....       0.004 sec  (  2.7%)
Two electron gradient       ....       0.026 sec  ( 18.8%)
------------------------------------------------------------------------------
                         ORCA GEOMETRY RELAXATION STEP
------------------------------------------------------------------------------

Reading the OPT-File                    .... done
Getting information on internals        .... done
Copying old internal coords+grads       .... done
Making the new internal coordinates     .... (new redundants).... done
Validating the new internal coordinates .... (new redundants).... done
Calculating the B-matrix                .... done
Calculating the G,G- and P matrices     .... done
Transforming gradient to internals      .... done
Projecting the internal gradient        .... done
Number of atoms                         ....   3
Number of internal coordinates          ....   3
Current Energy                          ....   -38.887501918 Eh
Current gradient norm                   ....     0.003163233 Eh/bohr
Maximum allowed component of the step   ....  0.300
Current trust radius                    ....  0.300
Updating the Hessian (BFGS)             .... done
Forming the augmented Hessian           .... done
Diagonalizing the augmented Hessian     .... done
Last element of RFO vector              ....  0.999960460
Lowest eigenvalues of augmented Hessian:
 -0.000017437  0.161427666  0.335333434
Length of the computed step             ....  0.008892970
The final length of the internal step   ....  0.008892970
Converting the step to cartesian space:
 Initial RMS(Int)=    0.0051343585
Transforming coordinates:
 Iter   0:  RMS(Cart)=    0.0022472929 RMS(Int)=    0.0051347894
 Iter   1:  RMS(Cart)=    0.0000084517 RMS(Int)=    0.0000123029
 Iter   2:  RMS(Cart)=    0.0000000172 RMS(Int)=    0.0000000387
done
Storing new coordinates                 .... done

                                .--------------------.
          ----------------------|Geometry convergence|-------------------------
          Item                value                   Tolerance       Converged
          ---------------------------------------------------------------------
          Energy change      -0.0001545833            0.0000050000      NO
          RMS gradient        0.0012479859            0.0001000000      NO
          MAX gradient        0.0013905580            0.0003000000      NO
          RMS step            0.0051343585            0.0020000000      NO
          MAX step            0.0067547500            0.0040000000      NO
          ........................................................
          Max(Bonds)      0.0022      Max(Angles)    0.39
          Max(Dihed)        0.00      Max(Improp)    0.00
          ---------------------------------------------------------------------

The optimization has not yet converged - more geometry cycles are needed


    ---------------------------------------------------------------------------
                         Redundant Internal Coordinates
                            (Angstroem and degrees)

        Definition                    Value    dE/dq     Step     New-Value
    ----------------------------------------------------------------------------
     1. B(H   1,C   0)                1.0964 -0.001391  0.0022    1.0986   
     2. B(H   2,C   0)                1.0964 -0.001390  0.0022    1.0986   
     3. A(H   1,C   0,H   2)          103.59  0.000898   -0.39    103.20   
    ----------------------------------------------------------------------------

         *************************************************************
         *                GEOMETRY OPTIMIZATION CYCLE   4            *
         *************************************************************
---------------------------------
CARTESIAN COORDINATES (ANGSTROEM)
---------------------------------
  C      0.266079   -0.492609    0.000000
  H     -0.643541    0.123408    0.000000
  H      1.073523    0.252321    0.000000

----------------------------
CARTESIAN COORDINATES (A.U.)
----------------------------
  NO LB      ZA    FRAG     MASS         X           Y           Z
   0 C     6.0000    0    12.011    0.502816   -0.930895    0.000000
   1 H     1.0000    0     1.008   -1.216117    0.233207    0.000000
   2 H     1.0000    0     1.008    2.028664    0.476817    0.000000

--------------------------------
INTERNAL COORDINATES (ANGSTROEM)
--------------------------------
 C      0   0   0     0.000000000000     0.00000000     0.00000000
 H      1   0   0     1.098583317102     0.00000000     0.00000000
 H      1   2   0     1.098583339777   103.19928709     0.00000000

---------------------------
INTERNAL COORDINATES (A.U.)
---------------------------
 C      0   0   0     0.000000000000     0.00000000     0.00000000
 H      1   0   0     2.076021604618     0.00000000     0.00000000
 H      1   2   0     2.076021647466   103.19928709     0.00000000


Diagonalization of the overlap matrix:
Smallest eigenvalue                        ... 2.257e-02
Time for diagonalization                   ...    0.000 sec
Threshold for overlap eigenvalues          ... 1.000e-08
Number of eigenvalues below threshold      ... 0
Time for construction of square roots      ...    0.000 sec
Total time needed                          ...    0.001 sec

--------------
SCF ITERATIONS
--------------
ITER       Energy         Delta-E        Max-DP      RMS-DP      [F,P]     Damp
               ***  Starting incremental Fock matrix formation  ***
                      *** Initiating the SOSCF procedure ***
                      *** Re-Reading the Fockian *** 
                      *** Removing any level shift *** 
ITER      Energy       Delta-E        Grad      Rot      Max-DP    RMS-DP
  0    -38.88750750 -38.8875075044  0.000681  0.000681  0.000973  0.000065
               *** Restarting incremental Fock matrix formation ***
  1    -38.88751053  -0.0000030250  0.000215  0.000235  0.000529  0.000045
  2    -38.88751101  -0.0000004815  0.000078  0.000145  0.000340  0.000029
  3    -38.88751108  -0.0000000715  0.000009  0.000019  0.000024  0.000002
                 **** Energy Check signals convergence ****
              ***Rediagonalizing the Fockian in SOSCF/NRSCF***

               *****************************************************
               *                     SUCCESS                       *
               *           SCF CONVERGED AFTER   4 CYCLES          *
               *****************************************************

Total Energy       :          -38.88751108 Eh           -1058.18297 eV
  Last Energy change         ...   -7.9204e-10  Tolerance :   1.0000e-08
  Last MAX-Density change    ...    1.2781e-05  Tolerance :   1.0000e-07
             **** THE GBW FILE WAS UPDATED (orca.gbw) ****
             **** DENSITY FILE WAS UPDATED (orca.scfp) ****
             **** ENERGY FILE WAS UPDATED (orca.en.tmp) ****
             **** THE GBW FILE WAS UPDATED (orca.gbw) ****
             **** DENSITY FILE WAS UPDATED (orca.scfp) ****
Total SCF time: 0 days 0 hours 0 min 0 sec 

-------------------------   --------------------
FINAL SINGLE POINT ENERGY       -38.887511083180
-------------------------   --------------------

------------------------------------------------------------------------------
                         ORCA SCF GRADIENT CALCULATION
------------------------------------------------------------------------------

Gradient of the Hartree-Fock SCF energy:
Hartree-Fock type                ... RHF
Number of operators              ...    1
Number of atoms                  ...    3
Basis set dimensions             ...   30
Integral neglect threshold       ... 2.5e-11
Integral primitive cutoff        ... 2.5e-12

Nuclear repulsion gradient       ... done
One Electron Gradient            ... done
Pre-screening matrix             ... done
Starting the two electron gradient:
Two electron gradient done

------------------
CARTESIAN GRADIENT
------------------

   1   C   :   -0.000011246    0.000149640   -0.000000000
   2   H   :    0.000136166   -0.000065024    0.000000000
   3   H   :   -0.000124920   -0.000084616    0.000000000

Difference to translation invariance:
           :    0.0000000000   -0.0000000000    0.0000000000

Norm of the cartesian gradient     ...    0.0002608696
RMS gradient                       ...    0.0000869565
MAX gradient                       ...    0.0001496400

-------
TIMINGS
-------

Total SCF gradient time            ...        0.136 sec

One electron gradient       ....       0.001 sec  (  0.9%)
Prescreening matrices       ....       0.004 sec  (  2.7%)
Two electron gradient       ....       0.026 sec  ( 18.8%)
------------------------------------------------------------------------------
                         ORCA GEOMETRY RELAXATION STEP
------------------------------------------------------------------------------

Reading the OPT-File                    .... done
Getting information on internals        .... done
Copying old internal coords+grads       .... done
Making the new internal coordinates     .... (new redundants).... done
Validating the new internal coordinates .... (new redundants).... done
Calculating the B-matrix                .... done
Calculating the G,G- and P matrices     .... done
Transforming gradient to internals      .... done
Projecting the internal gradient        .... done
Number of atoms                         ....   3
Number of internal coordinates          ....   3
Current Energy                          ....   -38.887511083 Eh
Current gradient norm                   ....     0.000260870 Eh/bohr
Maximum allowed component of the step   ....  0.300
Current trust radius                    ....  0.300
Updating the Hessian (BFGS)             .... done
Forming the augmented Hessian           .... done
Diagonalizing the augmented Hessian     .... done
Last element of RFO vector              ....  0.999999824
Lowest eigenvalues of augmented Hessian:
 -0.000000128  0.166988743  0.335333434
Length of the computed step             ....  0.000592998
The final length of the internal step   ....  0.000592998
Converting the step to cartesian space:
 Initial RMS(Int)=    0.0003423676
Transforming coordinates:
 Iter   0:  RMS(Cart)=    0.0001931875 RMS(Int)=    0.0003423678
 Iter   1:  RMS(Cart)=    0.0000000083 RMS(Int)=    0.0000000142
done
Storing new coordinates                 .... done

                                .--------------------.
          ----------------------|Geometry convergence|-------------------------
          Item                value                   Tolerance       Converged
          ---------------------------------------------------------------------
          Energy change      -0.0000091657            0.0000050000      NO
          RMS gradient        0.0001247734            0.0001000000      NO
          MAX gradient        0.0001492059            0.0003000000      YES
          RMS step            0.0003423676            0.0020000000      YES
          MAX step            0.0004105074            0.0040000000      YES
          ........................................................
          Max(Bonds)      0.0002      Max(Angles)    0.01
          Max(Dihed)        0.00      Max(Improp)    0.00
          ---------------------------------------------------------------------

       The step convergence is overachieved with 
       reasonable convergence on the gradient
       Convergence will therefore be signaled now


                    ***********************HURRAY********************
                    ***        THE OPTIMIZATION HAS CONVERGED     ***
                    *************************************************


    ---------------------------------------------------------------------------
                         Redundant Internal Coordinates

                          --- Optimized Parameters ---  
                            (Angstroem and degrees)

        Definition                    OldVal   dE/dq     Step     FinalVal
    ----------------------------------------------------------------------------
     1. B(H   1,C   0)                1.0986 -0.000149  0.0002    1.0988   
     2. B(H   2,C   0)                1.0986 -0.000149  0.0002    1.0988   
     3. A(H   1,C   0,H   2)          103.20 -0.000047    0.01    103.21   
    ----------------------------------------------------------------------------
                 *******************************************************
                 *** FINAL ENERGY EVALUATION AT THE STATIONARY POINT ***
                 ***               (AFTER    4 CYCLES)               ***
                 *******************************************************
---------------------------------
CARTESIAN COORDINATES (ANGSTROEM)
---------------------------------
  C      0.266083   -0.492664    0.000000
  H     -0.643754    0.123420    0.000000
  H      1.073732    0.252364    0.000000

----------------------------
CARTESIAN COORDINATES (A.U.)
----------------------------
  NO LB      ZA    FRAG     MASS         X           Y           Z
   0 C     6.0000    0    12.011    0.502824   -0.930999    0.000000
   1 H     1.0000    0     1.008   -1.216520    0.233229    0.000000
   2 H     1.0000    0     1.008    2.029059    0.476899    0.000000

--------------------------------
INTERNAL COORDINATES (ANGSTROEM)
--------------------------------
 C      0   0   0     0.000000000000     0.00000000     0.00000000
 H      1   0   0     1.098800548275     0.00000000     0.00000000
 H      1   2   0     1.098800550567   103.20622095     0.00000000

---------------------------
INTERNAL COORDINATES (A.U.)
---------------------------
 C      0   0   0     0.000000000000     0.00000000     0.00000000
 H      1   0   0     2.076432112042     0.00000000     0.00000000
 H      1   2   0     2.076432116374   103.20622095     0.00000000

---------------------
BASIS SET INFORMATION
---------------------
There are 2 groups of distinct atoms

 Group   1 Type C   : 11s5p1d contracted to 4s3p1d pattern {6311/311/1}
 Group   2 Type H   : 5s1p contracted to 3s1p pattern {311/1}

Atom   0C    basis set group =>   1
Atom   1H    basis set group =>   2
Atom   2H    basis set group =>   2
------------------------------------------------------------------------------
                           ORCA GTO INTEGRAL CALCULATION
------------------------------------------------------------------------------

                         BASIS SET STATISTICS AND STARTUP INFO

 # of primitive gaussian shells          ...   29
 # of primitive gaussian functions       ...   47
 # of contracted shells                  ...   16
 # of contracted basis functions         ...   30
 Highest angular momentum                ...    2
 Maximum contraction depth               ...    6
 Integral package used                   ... LIBINT
 Integral threshhold            Thresh   ...  2.500e-11
 Primitive cut-off              TCut     ...  2.500e-12


------------------------------ INTEGRAL EVALUATION ----------------------------


 * One electron integrals 
 Pre-screening matrix                    ... done
 Shell pair data                         ... done (   0.000 sec)

-------------------------------------------------------------------------------
                                 ORCA SCF
-------------------------------------------------------------------------------

------------
SCF SETTINGS
------------
Hamiltonian:
 Ab initio Hamiltonian  Method          .... Hartree-Fock(GTOs)


General Settings:
 Integral files         IntName         .... orca
 Hartree-Fock type      HFTyp           .... RHF
 Total Charge           Charge          ....    0
 Multiplicity           Mult            ....    1
 Number of Electrons    NEL             ....    8
 Basis Dimension        Dim             ....   30
 Nuclear Repulsion      ENuc            ....      6.0863907008 Eh

Convergence Acceleration:
 DIIS                   CNVDIIS         .... on
   Start iteration      DIISMaxIt       ....    12
   Startup error        DIISStart       ....  0.200000
   # of expansion vecs  DIISMaxEq       ....     5
   Bias factor          DIISBfac        ....   1.050
   Max. coefficient     DIISMaxC        ....  10.000
 Newton-Raphson         CNVNR           .... off
 SOSCF                  CNVSOSCF        .... on
   Start iteration      SOSCFMaxIt      ....   150
   Startup grad/error   SOSCFStart      ....  0.003300
 Level Shifting         CNVShift        .... on
   Level shift para.    LevelShift      ....    0.2500
   Turn off err/grad.   ShiftErr        ....    0.0010
 Zerner damping         CNVZerner       .... off
 Static damping         CNVDamp         .... on
   Fraction old density DampFac         ....    0.7000
   Max. Damping (<1)    DampMax         ....    0.9800
   Min. Damping (>=0)   DampMin         ....    0.0000
   Turn off err/grad.   DampErr         ....    0.1000
 Fernandez-Rico         CNVRico         .... off

SCF Procedure:
 Maximum # iterations   MaxIter         ....   125
 SCF integral mode      SCFMode         .... Direct
   Integral package                     .... LIBINT
 Reset frequency        DirectResetFreq ....    20
 Integral Threshold     Thresh          ....  2.500e-11 Eh
 Primitive CutOff       TCut            ....  2.500e-12 Eh

Convergence Tolerance:
 Convergence Check Mode ConvCheckMode   .... Total+1el-Energy
 Convergence forced     ConvForced      .... 0
 Energy Change          TolE            ....  1.000e-08 Eh
 1-El. energy change                    ....  1.000e-05 Eh
 Orbital Gradient       TolG            ....  1.000e-05
 Orbital Rotation angle TolX            ....  1.000e-05
 DIIS Error             TolErr          ....  5.000e-07


Diagonalization of the overlap matrix:
Smallest eigenvalue                        ... 2.259e-02
Time for diagonalization                   ...    0.000 sec
Threshold for overlap eigenvalues          ... 1.000e-08
Number of eigenvalues below threshold      ... 0
Time for construction of square roots      ...    0.000 sec
Total time needed                          ...    0.001 sec

---------------------
INITIAL GUESS: MOREAD
---------------------
Guess MOs are being read from file: orca.gbw
Input Geometry matches current geometry (good)
Input basis set matches current basis set (good)
MOs were renormalized
MOs were reorthogonalized (Cholesky)
                      ------------------
                      INITIAL GUESS DONE (   0.0 sec)
                      ------------------
--------------
SCF ITERATIONS
--------------
ITER       Energy         Delta-E        Max-DP      RMS-DP      [F,P]     Damp
               ***  Starting incremental Fock matrix formation  ***
                      *** Initiating the SOSCF procedure ***
                      *** Re-Reading the Fockian *** 
                      *** Removing any level shift *** 
ITER      Energy       Delta-E        Grad      Rot      Max-DP    RMS-DP
  0    -38.88751113 -38.8875111323  0.000059  0.000059  0.000029  0.000003
               *** Restarting incremental Fock matrix formation ***
  1    -38.88751115  -0.0000000150  0.000015  0.000019  0.000027  0.000002
                 **** Energy Check signals convergence ****
              ***Rediagonalizing the Fockian in SOSCF/NRSCF***

               *****************************************************
               *                     SUCCESS                       *
               *           SCF CONVERGED AFTER   2 CYCLES          *
               *****************************************************


----------------
TOTAL SCF ENERGY
----------------

Total Energy       :          -38.88751115 Eh           -1058.18298 eV

Components:
Nuclear Repulsion  :            6.08639070 Eh             165.61911 eV
Electronic Energy  :          -44.97390185 Eh           -1223.80209 eV
One Electron Energy:          -63.67922628 Eh           -1732.79984 eV
Two Electron Energy:           18.70532443 Eh             508.99775 eV

Virial components:
Potential Energy   :          -77.79096754 Eh           -2116.79984 eV
Kinetic Energy     :           38.90345639 Eh            1058.61687 eV
Virial Ratio       :            1.99959013


---------------
SCF CONVERGENCE
---------------

  Last Energy change         ...   -1.6435e-09  Tolerance :   1.0000e-08
  Last MAX-Density change    ...    1.7023e-05  Tolerance :   1.0000e-07
  Last RMS-Density change    ...    1.3239e-06  Tolerance :   5.0000e-09
  Last Orbital Gradient      ...    4.8585e-06  Tolerance :   1.0000e-05
  Last Orbital Rotation      ...    1.3734e-05  Tolerance :   1.0000e-05

             **** THE GBW FILE WAS UPDATED (orca.gbw) ****
             **** DENSITY FILE WAS UPDATED (orca.scfp) ****
             **** ENERGY FILE WAS UPDATED (orca.en.tmp) ****
             **** THE GBW FILE WAS UPDATED (orca.gbw) ****
             **** DENSITY FILE WAS UPDATED (orca.scfp) ****
----------------
ORBITAL ENERGIES
----------------

  NO   OCC          E(Eh)            E(eV) 
   0   2.0000     -11.283691      -307.0448 
   1   2.0000      -0.893142       -24.3036 
   2   2.0000      -0.567376       -15.4391 
   3   2.0000      -0.390076       -10.6145 
   4   0.0000       0.058584         1.5941 
   5   0.0000       0.162571         4.4238 
   6   0.0000       0.223064         6.0699 
   7   0.0000       0.436417        11.8755 
   8   0.0000       0.526080        14.3154 
   9   0.0000       0.637672        17.3519 
  10   0.0000       0.649520        17.6743 
  11   0.0000       0.787988        21.4422 
  12   0.0000       0.843685        22.9578 
  13   0.0000       1.282081        34.8872 
  14   0.0000       1.301498        35.4156 
  15   0.0000       1.402769        38.1713 
  16   0.0000       1.732339        47.1393 
  17   0.0000       1.760753        47.9125 
  18   0.0000       1.845019        50.2055 
  19   0.0000       2.119147        57.6649 
  20   0.0000       2.135295        58.1043 
  21   0.0000       2.385889        64.9233 
  22   0.0000       2.561793        69.7099 
  23   0.0000       2.627859        71.5077 
  24   0.0000       2.831770        77.0564 
  25   0.0000       2.836949        77.1973 
  26   0.0000       3.017860        82.1202 
  27   0.0000       3.327675        90.5506 
  28   0.0000       3.983666       108.4011 
  29   0.0000      24.844676       676.0580 

                    ********************************
                    * MULLIKEN POPULATION ANALYSIS *
                    ********************************

-----------------------
MULLIKEN ATOMIC CHARGES
-----------------------
   0 C :   -0.178843
   1 H :    0.089422
   2 H :    0.089422
Sum of atomic charges:    0.0000000

--------------------------------
MULLIKEN REDUCED ORBITAL CHARGES
--------------------------------
  0 C s       :     3.657123  s :     3.657123
      pz      :     0.000000  p :     2.487736
      px      :     1.001877
      py      :     1.485859
      dz2     :     0.007001  d :     0.033984
      dxz     :    -0.000000
      dyz     :     0.000000
      dx2y2   :     0.000795
      dxy     :     0.026188
  1 H s       :     0.884361  s :     0.884361
      pz      :     0.000000  p :     0.026218
      px      :     0.015617
      py      :     0.010601
  2 H s       :     0.884361  s :     0.884361
      pz      :     0.000000  p :     0.026218
      px      :     0.014225
      py      :     0.011993


                     *******************************
                     * LOEWDIN POPULATION ANALYSIS *
                     *******************************

----------------------
LOEWDIN ATOMIC CHARGES
----------------------
   0 C :    0.067645
   1 H :   -0.033822
   2 H :   -0.033822

-------------------------------
LOEWDIN REDUCED ORBITAL CHARGES
-------------------------------
  0 C s       :     3.268866  s :     3.268866
      pz      :     0.000000  p :     2.617856
      px      :     1.060185
      py      :     1.557671
      dz2     :     0.009181  d :     0.045634
      dxz     :     0.000000
      dyz     :     0.000000
      dx2y2   :     0.000938
      dxy     :     0.035514
  1 H s       :     0.957202  s :     0.957202
      pz      :     0.000000  p :     0.076621
      px      :     0.039121
      py      :     0.037500
  2 H s       :     0.957202  s :     0.957202
      pz      :     0.000000  p :     0.076621
      px      :     0.034177
      py      :     0.042444


                      *****************************
                      * MAYER POPULATION ANALYSIS *
                      *****************************

  NA   - Mulliken gross atomic population
  ZA   - Total nuclear charge
  QA   - Mulliken gross atomic charge
  VA   - Mayer's total valence
  BVA  - Mayer's bonded valence
  FA   - Mayer's free valence

  ATOM       NA         ZA         QA         VA         BVA        FA
  0 C      6.1788     6.0000    -0.1788     1.9320     1.9320     0.0000
  1 H      0.9106     1.0000     0.0894     0.9549     0.9549     0.0000
  2 H      0.9106     1.0000     0.0894     0.9549     0.9549     0.0000

  Mayer bond orders larger than 0.100000
B(  0-C ,  1-H ) :   0.9660 B(  0-C ,  2-H ) :   0.9660 

-------
TIMINGS
-------

Total SCF time: 0 days 0 hours 0 min 0 sec 

Total time                  ....       0.374 sec
Sum of individual times     ....       0.227 sec  ( 60.5%)

Fock matrix formation       ....       0.225 sec  ( 60.1%)
Diagonalization             ....       0.000 sec  (  0.1%)
Density matrix formation    ....       0.000 sec  (  0.0%)
Population analysis         ....       0.000 sec  (  0.1%)
Initial guess               ....       0.000 sec  (  0.1%)
Orbital Transformation      ....       0.000 sec  (  0.0%)
Orbital Orthonormalization  ....       0.000 sec  (  0.0%)
DIIS solution               ....       0.000 sec  (  0.0%)
SOSCF solution              ....       0.000 sec  (  0.1%)

-------------------------   --------------------
FINAL SINGLE POINT ENERGY       -38.887511149023
-------------------------   --------------------

                                *** OPTIMIZATION RUN DONE ***

                            ***************************************
                            *     ORCA property calculations      *
                            ***************************************

                                    ---------------------
                                    Active property flags
                                    ---------------------
   (+) Dipole Moment


------------------------------------------------------------------------------
                       ORCA ELECTRIC PROPERTIES CALCULATION
------------------------------------------------------------------------------

Dipole Moment Calculation                       ... on
Quadrupole Moment Calculation                   ... off
Polarizability Calculation                      ... off
GBWName                                         ... orca.gbw
Electron density file                           ... orca.scfp
The origin for moment calculation is the CENTER OF MASS  = ( 0.488947, -0.746163  0.000000)

-------------
DIPOLE MOMENT
-------------
                                X             Y             Z
Electronic contribution:      0.02206      -0.29380      -0.00000
Nuclear contribution   :     -0.08209       1.09343       0.00000
                        -----------------------------------------
Total Dipole Moment    :     -0.06003       0.79964      -0.00000
                        -----------------------------------------
Magnitude (a.u.)       :      0.80189
Magnitude (Debye)      :      2.03824



--------------------
Rotational spectrum 
--------------------
 
Rotational constants in cm-1:    20.966401    11.275578     7.332313 
Rotational constants in MHz : 628556.891133 338033.332173 219817.224763 

 Dipole components along the rotational axes: 
x,y,z [a.u.] :     0.000000     0.801887    -0.000000 
x,y,z [Debye]:     0.000000     2.038236    -0.000000 

 

Timings for individual modules:

Sum of individual times         ...        8.006 sec (=   0.133 min)
GTO integral calculation        ...        1.738 sec (=   0.029 min)  21.7 %
SCF iterations                  ...        4.045 sec (=   0.067 min)  50.5 %
SCF Gradient evaluation         ...        1.277 sec (=   0.021 min)  16.0 %
Geometry relaxation             ...        0.946 sec (=   0.016 min)  11.8 %
                             ****ORCA TERMINATED NORMALLY****
TOTAL RUN TIME: 0 days 0 hours 0 minutes 8 seconds 483 msec
