
                                 *****************
                                 * O   R   C   A *
                                 *****************

           --- An Ab Initio, DFT and Semiempirical electronic structure package ---

                  #######################################################
                  #                        -***-                        #
                  #          Department of theory and spectroscopy      #
                  #               Directorship: Frank Neese             #
                  #        Max Planck Institute fuer Kohlenforschung    #
                  #                Kaiser Wilhelm Platz 1               #
                  #                 D-45470 Muelheim/Ruhr               #
                  #                      Germany                        #
                  #                                                     #
                  #                  All rights reserved                #
                  #                        -***-                        #
                  #######################################################


                         Program Version 4.2.1 -  RELEASE  -


 With contributions from (in alphabetic order):
   Daniel Aravena         : Magnetic Suceptibility
   Michael Atanasov       : Ab Initio Ligand Field Theory (pilot matlab implementation)
   Alexander A. Auer      : GIAO ZORA, VPT2
   Ute Becker             : Parallelization
   Giovanni Bistoni       : ED, misc. LED, open-shell LED, HFLD
   Martin Brehm           : Molecular dynamics
   Dmytro Bykov           : SCF Hessian
   Vijay G. Chilkuri      : MRCI spin determinant printing, contributions to CSF-ICE
   Dipayan Datta          : RHF DLPNO-CCSD density
   Achintya Kumar Dutta   : EOM-CC, STEOM-CC
   Dmitry Ganyushin       : Spin-Orbit,Spin-Spin,Magnetic field MRCI
   Miquel Garcia          : C-PCM Hessian, Gaussian charge scheme
   Yang Guo               : DLPNO-NEVPT2, CIM, IAO-localization
   Andreas Hansen         : Spin unrestricted coupled pair/coupled cluster methods
   Benjamin Helmich-Paris : CASSCF linear response (MC-RPA)
   Lee Huntington         : MR-EOM, pCC
   Robert Izsak           : Overlap fitted RIJCOSX, COSX-SCS-MP3, EOM
   Christian Kollmar      : KDIIS, OOCD, Brueckner-CCSD(T), CCSD density
   Simone Kossmann        : Meta GGA functionals, TD-DFT gradient, OOMP2, MP2 Hessian
   Martin Krupicka        : AUTO-CI
   Lucas Lang             : DCDCAS
   Dagmar Lenk            : GEPOL surface, SMD
   Dimitrios Liakos       : Extrapolation schemes; Compound Job, initial MDCI parallelization
   Dimitrios Manganas     : Further ROCIS development; embedding schemes
   Dimitrios Pantazis     : SARC Basis sets
   Taras Petrenko         : DFT Hessian,TD-DFT gradient, ASA, ECA, R-Raman, ABS, FL, XAS/XES, NRVS
   Peter Pinski           : DLPNO-MP2, DLPNO-MP2 Gradient
   Christoph Reimann      : Effective Core Potentials
   Marius Retegan         : Local ZFS, SOC
   Christoph Riplinger    : Optimizer, TS searches, QM/MM, DLPNO-CCSD(T), (RO)-DLPNO pert. Triples
   Tobias Risthaus        : Range-separated hybrids, TD-DFT gradient, RPA, STAB
   Michael Roemelt        : Original ROCIS implementation
   Masaaki Saitow         : Open-shell DLPNO-CCSD energy and density
   Barbara Sandhoefer     : DKH picture change effects
   Avijit Sen             : IP-ROCIS
   Kantharuban Sivalingam : CASSCF convergence, NEVPT2, FIC-MRCI
   Bernardo de Souza      : ESD, SOC TD-DFT
   Georgi Stoychev        : AutoAux, RI-MP2 NMR
   Willem Van den Heuvel  : Paramagnetic NMR
   Boris Wezisla          : Elementary symmetry handling
   Frank Wennmohs         : Technical directorship


 We gratefully acknowledge several colleagues who have allowed us to
 interface, adapt or use parts of their codes:
   Stefan Grimme, W. Hujo, H. Kruse,             : VdW corrections, initial TS optimization,
                  C. Bannwarth                     DFT functionals, gCP, sTDA/sTD-DF
   Ed Valeev, F. Pavosevic, A. Kumar             : LibInt (2-el integral package), F12 methods
   Garnet Chan, S. Sharma, J. Yang, R. Olivares  : DMRG
   Ulf Ekstrom                                   : XCFun DFT Library
   Mihaly Kallay                                 : mrcc  (arbitrary order and MRCC methods)
   Andreas Klamt, Michael Diedenhofen            : otool_cosmo (COSMO solvation model)
   Jiri Pittner, Ondrej Demel                    : Mk-CCSD
   Frank Weinhold                                : gennbo (NPA and NBO analysis)
   Christopher J. Cramer and Donald G. Truhlar   : smd solvation model
   Lars Goerigk                                  : TD-DFT with DH, B97 family of functionals
   V. Asgeirsson, H. Jonsson                     : NEB implementation
   FAccTs GmbH                                   : IRC, NEB, NEB-TS, Multilevel, MM, QM/MM, CI optimization
   S Lehtola, MJT Oliveira, MAL Marques          : LibXC Library


 Your calculation uses the libint2 library for the computation of 2-el integrals
 For citations please refer to: http://libint.valeyev.net

 Your ORCA version has been built with support for libXC version: 4.2.3
 For citations please refer to: https://tddft.org/programs/libxc/

 This ORCA versions uses:
   CBLAS   interface :  Fast vector & matrix operations
   LAPACKE interface :  Fast linear algebra routines
   SCALAPACK package :  Parallel linear algebra routines


----- Orbital basis set information -----
Your calculation utilizes the basis: 6-31G
   H-He, Li-Ne : W. J. Hehre, R. Ditchfield and J.A. Pople, J. Chem. Phys. 56, 2257 (1972).
                 Note: He and Ne are unpublished basis sets taken from the Gaussian program.
                 Note: Li and B from J. D. Dill and J. A. Pople, J. Chem. Phys. 62, 2921 (1975).
   Na - Ar     : M. M. Francl, W. J. Pietro, W. J. Hehre, J. S. Binkley, M. S. Gordon, 
                 D. J. DeFrees and J. A. Pople, J. Chem. Phys. 77, 3654 (1982).
   K - Zn      : V. A. Rassolov, J. A. Pople, M. A. Ratner, and T. L. Windus, J. Chem. Phys. 109, 1223 (1998).

================================================================================
                                        WARNINGS
                       Please study these warnings very carefully!
================================================================================


WARNING: MDCI localization with Augmented Hessian Foster-Boys
  ===> : Switching off randomization!

WARNING: Post HF methods need fully converged wavefunctions
  ===> : Setting SCFConvForced true
         You can overwrite this default with %scf ConvForced false 


INFO   : the flag for use of LIBINT has been found!

================================================================================
                                       INPUT FILE
================================================================================
NAME = orca.inp
|  1> !QCISD 6-31G ENERGY
|  2> 
|  3> %paras
|  4> 	R = 0.4, 2.0, 33 # x-axis of H1
|  5> end
|  6> 
|  7> *xyz 0 1
|  8> H    0.0000000    0.0000000    0.0000000
|  9> H    {R}                0.0000000    0.0000000
| 10> **                         ****END OF INPUT****
================================================================================

                       ******************************
                       * Parameter Scan Calculation *
                       ******************************

Trajectory settings:
    -> SCF surface will be mapped
    -> MDCI surface will be mapped

There are 1 parameter(s) to be scanned
             R: range=   0.40000000 ..   2.00000000  steps=   33
There will be   33 energy evaluations


         *************************************************************
                                TRAJECTORY STEP   1
                  R  :   0.40000000
         *************************************************************
---------------------------------
CARTESIAN COORDINATES (ANGSTROEM)
---------------------------------
  H      0.000000    0.000000    0.000000
  H      0.400000    0.000000    0.000000

----------------------------
CARTESIAN COORDINATES (A.U.)
----------------------------
  NO LB      ZA    FRAG     MASS         X           Y           Z
   0 H     1.0000    0     1.008    0.000000    0.000000    0.000000
   1 H     1.0000    0     1.008    0.755890    0.000000    0.000000

--------------------------------
INTERNAL COORDINATES (ANGSTROEM)
--------------------------------
 H      0   0   0     0.000000000000     0.00000000     0.00000000
 H      1   0   0     0.400000000000     0.00000000     0.00000000

---------------------------
INTERNAL COORDINATES (A.U.)
---------------------------
 H      0   0   0     0.000000000000     0.00000000     0.00000000
 H      1   0   0     0.755890453569     0.00000000     0.00000000

---------------------
BASIS SET INFORMATION
---------------------
There are 1 groups of distinct atoms

 Group   1 Type H   : 4s contracted to 2s pattern {31}

Atom   0H    basis set group =>   1
Atom   1H    basis set group =>   1
------------------------------------------------------------------------------
                           ORCA GTO INTEGRAL CALCULATION
------------------------------------------------------------------------------

                         BASIS SET STATISTICS AND STARTUP INFO

 # of primitive gaussian shells          ...    8
 # of primitive gaussian functions       ...    8
 # of contracted shells                  ...    4
 # of contracted basis functions         ...    4
 Highest angular momentum                ...    0
 Maximum contraction depth               ...    3
 Integral package used                   ... LIBINT
 Integral threshhold            Thresh   ...  1.000e-10
 Primitive cut-off              TCut     ...  1.000e-11


------------------------------ INTEGRAL EVALUATION ----------------------------


 * One electron integrals 
 Pre-screening matrix                    ... done
 Shell pair data                         ... done (   0.000 sec)

-------------------------------------------------------------------------------
                                 ORCA SCF
-------------------------------------------------------------------------------

------------
SCF SETTINGS
------------
Hamiltonian:
 Ab initio Hamiltonian  Method          .... Hartree-Fock(GTOs)


General Settings:
 Integral files         IntName         .... orca
 Hartree-Fock type      HFTyp           .... RHF
 Total Charge           Charge          ....    0
 Multiplicity           Mult            ....    1
 Number of Electrons    NEL             ....    2
 Basis Dimension        Dim             ....    4
 Nuclear Repulsion      ENuc            ....      1.3229430208 Eh

Convergence Acceleration:
 DIIS                   CNVDIIS         .... on
   Start iteration      DIISMaxIt       ....    12
   Startup error        DIISStart       ....  0.200000
   # of expansion vecs  DIISMaxEq       ....     5
   Bias factor          DIISBfac        ....   1.050
   Max. coefficient     DIISMaxC        ....  10.000
 Newton-Raphson         CNVNR           .... off
 SOSCF                  CNVSOSCF        .... on
   Start iteration      SOSCFMaxIt      ....   150
   Startup grad/error   SOSCFStart      ....  0.003300
 Level Shifting         CNVShift        .... on
   Level shift para.    LevelShift      ....    0.2500
   Turn off err/grad.   ShiftErr        ....    0.0010
 Zerner damping         CNVZerner       .... off
 Static damping         CNVDamp         .... on
   Fraction old density DampFac         ....    0.7000
   Max. Damping (<1)    DampMax         ....    0.9800
   Min. Damping (>=0)   DampMin         ....    0.0000
   Turn off err/grad.   DampErr         ....    0.1000
 Fernandez-Rico         CNVRico         .... off

SCF Procedure:
 Maximum # iterations   MaxIter         ....   125
 SCF integral mode      SCFMode         .... Direct
   Integral package                     .... LIBINT
 Reset frequency        DirectResetFreq ....    20
 Integral Threshold     Thresh          ....  1.000e-10 Eh
 Primitive CutOff       TCut            ....  1.000e-11 Eh

Convergence Tolerance:
 Convergence Check Mode ConvCheckMode   .... Total+1el-Energy
 Convergence forced     ConvForced      .... 1
 Energy Change          TolE            ....  1.000e-06 Eh
 1-El. energy change                    ....  1.000e-03 Eh
 Orbital Gradient       TolG            ....  5.000e-05
 Orbital Rotation angle TolX            ....  5.000e-05
 DIIS Error             TolErr          ....  1.000e-06


Diagonalization of the overlap matrix:
Smallest eigenvalue                        ... 3.288e-02
Time for diagonalization                   ...    0.235 sec
Threshold for overlap eigenvalues          ... 1.000e-08
Number of eigenvalues below threshold      ... 0
Time for construction of square roots      ...    0.096 sec
Total time needed                          ...    0.330 sec

-------------------
DFT GRID GENERATION
-------------------

General Integration Accuracy     IntAcc      ...  4.340
Radial Grid Type                 RadialGrid  ... Gauss-Chebyshev
Angular Grid (max. acc.)         AngularGrid ... Lebedev-110
Angular grid pruning method      GridPruning ... 3 (G Style)
Weight generation scheme         WeightScheme... Becke
Basis function cutoff            BFCut       ...    1.0000e-10
Integration weight cutoff        WCut        ...    1.0000e-14
Grids for H and He will be reduced by one unit

# of grid points (after initial pruning)     ...   1588 (   0.0 sec)
# of grid points (after weights+screening)   ...   1558 (   0.0 sec)
nearest neighbour list constructed           ...    0.0 sec
Grid point re-assignment to atoms done       ...    0.0 sec
Grid point division into batches done        ...    0.0 sec
Reduced shell lists constructed in    0.0 sec

Total number of grid points                  ...     1558
Total number of batches                      ...       26
Average number of points per batch           ...       59
Average number of grid points per atom       ...      779
Average number of shells per batch           ...     3.85 (96.30%)
Average number of basis functions per batch  ...     3.85 (96.30%)
Average number of large shells per batch     ...     3.85 (100.00%)
Average number of large basis fcns per batch ...     3.85 (100.00%)
Maximum spatial batch extension              ...  15.26, 21.59, 21.59 au
Average spatial batch extension              ...   4.39,  8.19,  8.26 au

Time for grid setup =    0.003 sec

------------------------------
INITIAL GUESS: MODEL POTENTIAL
------------------------------
Loading Hartree-Fock densities                     ... done
Calculating cut-offs                               ... done
Setting up the integral package                    ... done
Initializing the effective Hamiltonian             ... done
Starting the Coulomb interaction                   ... done (   0.0 sec)
Reading the grid                                   ... done
Mapping shells                                     ... done
Starting the XC term evaluation                    ... done (   0.0 sec)
Transforming the Hamiltonian                       ... done (   0.0 sec)
Diagonalizing the Hamiltonian                      ... done (   0.0 sec)
Back transforming the eigenvectors                 ... done (   0.0 sec)
Now organizing SCF variables                       ... done
                      ------------------
                      INITIAL GUESS DONE (   0.1 sec)
                      ------------------
--------------
SCF ITERATIONS
--------------
ITER       Energy         Delta-E        Max-DP      RMS-DP      [F,P]     Damp
               ***  Starting incremental Fock matrix formation  ***
  0     -0.9250952661   0.000000000000 0.01221758  0.00553264  0.0910462 0.7000
  1     -0.9271010693  -0.002005803200 0.01091621  0.00494534  0.0718964 0.7000
                               ***Turning on DIIS***
  2     -0.9286865455  -0.001585476190 0.02813930  0.01275090  0.0545950 0.0000
  3     -0.9353478111  -0.006661265648 0.00480949  0.00219031  0.0095142 0.0000
                      *** Initiating the SOSCF procedure ***
                           *** Shutting down DIIS ***
                      *** Re-Reading the Fockian *** 
                      *** Removing any level shift *** 
ITER      Energy       Delta-E        Grad      Rot      Max-DP    RMS-DP
  4     -0.93340104   0.0019467719  0.001312  0.001312  0.000769  0.000350
               *** Restarting incremental Fock matrix formation ***
  5     -0.93300415   0.0003968875  0.000174  0.000128  0.000121  0.000055
                 **** Energy Check signals convergence ****
              ***Rediagonalizing the Fockian in SOSCF/NRSCF***

               *****************************************************
               *                     SUCCESS                       *
               *           SCF CONVERGED AFTER   6 CYCLES          *
               *****************************************************


----------------
TOTAL SCF ENERGY
----------------

Total Energy       :           -0.93300420 Eh             -25.38834 eV

Components:
Nuclear Repulsion  :            1.32294302 Eh              35.99911 eV
Electronic Energy  :           -2.25594722 Eh             -61.38744 eV
One Electron Energy:           -3.06246668 Eh             -83.33395 eV
Two Electron Energy:            0.80651946 Eh              21.94651 eV

Virial components:
Potential Energy   :           -2.54104887 Eh             -69.14546 eV
Kinetic Energy     :            1.60804467 Eh              43.75712 eV
Virial Ratio       :            1.58021038


---------------
SCF CONVERGENCE
---------------

  Last Energy change         ...   -5.1354e-08  Tolerance :   1.0000e-06
  Last MAX-Density change    ...    2.1779e-05  Tolerance :   1.0000e-05
  Last RMS-Density change    ...    9.9284e-06  Tolerance :   1.0000e-06
  Last Orbital Gradient      ...    2.6606e-05  Tolerance :   5.0000e-05
  Last Orbital Rotation      ...    2.3128e-05  Tolerance :   5.0000e-05

             **** THE GBW FILE WAS UPDATED (orca.gbw) ****
             **** DENSITY FILE WAS UPDATED (orca.scfp) ****
             **** ENERGY FILE WAS UPDATED (orca.en.tmp) ****
             **** THE GBW FILE WAS UPDATED (orca.gbw) ****
             **** DENSITY FILE WAS UPDATED (orca.scfp) ****
----------------
ORBITAL ENERGIES
----------------

  NO   OCC          E(Eh)            E(eV) 
   0   2.0000      -0.724704       -19.7202 
   1   0.0000       0.318095         8.6558 
   2   0.0000       0.633430        17.2365 
   3   0.0000       2.137935        58.1762 

                    ********************************
                    * MULLIKEN POPULATION ANALYSIS *
                    ********************************

-----------------------
MULLIKEN ATOMIC CHARGES
-----------------------
   0 H :   -0.000000
   1 H :    0.000000
Sum of atomic charges:   -0.0000000

--------------------------------
MULLIKEN REDUCED ORBITAL CHARGES
--------------------------------
  0 H s       :     1.000000  s :     1.000000
  1 H s       :     1.000000  s :     1.000000


                     *******************************
                     * LOEWDIN POPULATION ANALYSIS *
                     *******************************

----------------------
LOEWDIN ATOMIC CHARGES
----------------------
   0 H :   -0.000000
   1 H :    0.000000

-------------------------------
LOEWDIN REDUCED ORBITAL CHARGES
-------------------------------
  0 H s       :     1.000000  s :     1.000000
  1 H s       :     1.000000  s :     1.000000


                      *****************************
                      * MAYER POPULATION ANALYSIS *
                      *****************************

  NA   - Mulliken gross atomic population
  ZA   - Total nuclear charge
  QA   - Mulliken gross atomic charge
  VA   - Mayer's total valence
  BVA  - Mayer's bonded valence
  FA   - Mayer's free valence

  ATOM       NA         ZA         QA         VA         BVA        FA
  0 H      1.0000     1.0000    -0.0000     1.0000     1.0000    -0.0000
  1 H      1.0000     1.0000     0.0000     1.0000     1.0000    -0.0000

  Mayer bond orders larger than 0.100000
B(  0-H ,  1-H ) :   1.0000 

-------
TIMINGS
-------

Total SCF time: 0 days 0 hours 0 min 1 sec 

Total time                  ....       1.059 sec
Sum of individual times     ....       0.564 sec  ( 53.2%)

Fock matrix formation       ....       0.453 sec  ( 42.8%)
Diagonalization             ....       0.000 sec  (  0.0%)
Density matrix formation    ....       0.000 sec  (  0.0%)
Population analysis         ....       0.000 sec  (  0.0%)
Initial guess               ....       0.106 sec  ( 10.0%)
Orbital Transformation      ....       0.000 sec  (  0.0%)
Orbital Orthonormalization  ....       0.000 sec  (  0.0%)
DIIS solution               ....       0.000 sec  (  0.0%)
SOSCF solution              ....       0.000 sec  (  0.0%)


------------------------------------------------------------------------------- 
                              ORCA-MATRIX DRIVEN CI                            
------------------------------------------------------------------------------- 

--------------------------------
AUTOMATIC CHOICE OF INCORE LEVEL
--------------------------------

Memory available                           ...    256.00 MB
Memory needed for S+T                      ...      0.00 MB
Memory needed for J+K                      ...      0.00 MB
Memory needed for DIIS                     ...      0.00 MB
Memory needed for 3-ext                    ...      0.00 MB
Memory needed for 4-ext                    ...      0.00 MB
Memory needed for triples                  ...      0.00 MB
 -> Final InCoreLevel    ... 5

Wavefunction type
-----------------
Correlation treatment                      ...     QCISD     
Single excitations                         ... ON
Orbital optimization                       ... OFF
Calculation of Z vector                    ... OFF
Calculation of Brueckner orbitals          ... OFF
Perturbative triple excitations            ... OFF
Calculation of F12 correction              ... OFF
Frozen core treatment                      ... chemical core (0 el)
Reference Wavefunction                     ... RHF
  Internal Orbitals:     0 ...    0 (  1 MO's/  2 electrons)
  Virtual  Orbitals:     1 ...    3 (  3 MO's              )
Number of AO's                             ...      4
Number of electrons                        ...      2
Number of correlated electrons             ...      2

Algorithmic settings
--------------------
Integral transformation                    ... AO direct full transformation
K(C) Formation                             ... FULL-MO TRAFO
Maximum number of iterations               ...        50
Convergence tolerance (max. residuum)      ... 2.500e-05
Level shift for amplitude update           ... 2.000e-01
Maximum number of DIIS vectors             ...         7
DIIS turned on at iteration                ...         0
Damping before turning on DIIS             ...     0.500
Damping after turning on DIIS              ...     0.000
Pair specific amplitude update             ... OFF
Natural orbital iterations                 ... OFF
Perturbative natural orbital generation    ... OFF
Printlevel                                 ... 2

Memory handling:
----------------
Maximum memory for working arrays          ...    256 MB
Data storage in matrix containers          ... UNCOMPRESSED
Data type for integral storage             ... DOUBLE
In-Core Storage of quantities:
   Amplitudes+Sigma Vector      ... YES
   J+K operators                ... YES
   DIIS vectors                 ... YES
   3-external integrals         ... YES
   4-external integrals         ... YES


Initializing the integral package          ... done
Warning: reference  - re-canonicalizations have been set to INT 1 VIRT 1

--------------------------
CLOSED-SHELL FOCK OPERATOR
--------------------------

<ss|ss>:           55 b            0 skpd (  0.0%)    0.000 s ( 0.001 ms/b)
Recanonicalizing the internal orbitals
Recanonicalizing the virtual orbitals
Time needed for Fock operator              ...            0.138 sec
Reference energy                           ...     -0.933004204

------------------------------
PARTIAL COULOMB TRANSFORMATION
------------------------------

Transformation type                        ... one-operator
Dimension of the basis                     ...    4
Number of internal MOs                     ...    4 (0-3)
Pair cutoff                                ... 0.000e+00 Eh
Number of AO pairs included in the trafo   ...   10
Total Number of distinct AO pairs          ...   10
Memory devoted for trafo                   ...  256.0 MB 
Max. Number of MO pairs treated together   ... 3355443      
Max. Number of MOs treated per batch       ... 838860      
Number Format for Storage                  ... Double (8 Byte)
AO-integral source                         ... DIRECT
Integral package used                      ... LIBINT

Starting integral evaluation:
<ss|**>:          100 b        0 skpd     0.000 s (  0.002 ms/b)
Closing buffer AOJ ( 0.00 GB; CompressionRatio= 0.87)
Collecting buffer AOJ 
    ... done with AO integral generation
Number of MO pairs included in the trafo   ...   10
    ... Now sorting integrals
IBATCH = 1 of  1
Closing buffer JAO ( 0.00 GB; CompressionRatio= 0.87)
Collecting buffer JAO 
TOTAL TIME for half transformation         ...     0.001 sec
AO-integral generation                     ...     0.000 sec
Half transformation                        ...     0.000 sec
J-integral sorting                         ...     0.000 sec

-------------------------- SECOND HALF TRANSFORMATION -------------------------
Formation of (pq|rs)                       ... ok (     0.000 sec)
Integral sorting                           ... ok (     0.000 sec)

------------------
CLOSED SHELL GUESS
------------------

Initial guess performed in     0.000 sec
E(0)                                       ...     -0.933004204
E(MP2)                                     ...     -0.013288952
Initial E(tot)                             ...     -0.946293156
<T|T>                                      ...      0.003787433
Number of pairs included                   ... 1
Total number of pairs                      ... 1

---------------------------
RHF QUADRATIC CI ITERATIONS
---------------------------

Number of amplitudes to be optimized       ... 12

Iter       E(tot)           E(Corr)          Delta-E          Residual     Time
  0     -0.946293156     -0.013288952      0.000000000      0.033834893    0.00
                           *** Turning on DIIS ***
  1     -0.949381396     -0.016377191     -0.003088239      0.009040037    0.00
  2     -0.950610064     -0.017605860     -0.001228669      0.000719079    0.00
  3     -0.950669997     -0.017665792     -0.000059932      0.000252638    0.00
  4     -0.950678121     -0.017673917     -0.000008124      0.000019503    0.00
               --- The Quadratic CI iterations have converged ---

-------------------
QUADRATIC CI ENERGY
-------------------

E(0)                                       ...     -0.933004204
E(CORR)                                    ...     -0.017673917
E(TOT)                                     ...     -0.950678121
Singles Norm <S|S>**1/2                    ...      0.002454251  
T1 diagnostic                              ...      0.001735417  

------------------
LARGEST AMPLITUDES
------------------
   0->  2   0->  2       0.057800
   0->  3   0->  3       0.036830
   0->  1   0->  1       0.029641
   0->  1   0->  3       0.025114
   0->  3   0->  1       0.025114
   0->  2  -1-> -1       0.002454
   0->  1  -1-> -1       0.000000
   0->  3  -1-> -1       0.000000
   0->  3   0->  2       0.000000
   0->  2   0->  3       0.000000
   0->  2   0->  1       0.000000
   0->  1   0->  2       0.000000


        !!!!!!!!!!!!!!!!!!!!!!!!!!!!!!!!!!!!!!!!!!!!!!!!!!!!!!!!!!!!!!!!!!!!!!!!!! 
        !  Warning: Densities are linearized densities !                         !
        !!!!!!!!!!!!!!!!!!!!!!!!!!!!!!!!!!!!!!!!!!!!!!!!!!!!!!!!!!!!!!!!!!!!!!!!!! 

Trace of internal density part =     -0.013686786
Trace of external density part =      0.013686786
NORM  =      1.006849416 sqrt=     1.003418864
W(HF) =      0.993197179
------------------------------------------------------------------------------
                           ORCA POPULATION ANALYSIS
------------------------------------------------------------------------------
Input electron density              ... orca.mdcip
BaseName (.gbw .S,...)              ... orca

                    ********************************
                    * MULLIKEN POPULATION ANALYSIS *
                    ********************************

-----------------------
MULLIKEN ATOMIC CHARGES
-----------------------
   0 H :   -0.000000
   1 H :    0.000000
Sum of atomic charges:   -0.0000000

--------------------------------
MULLIKEN REDUCED ORBITAL CHARGES
--------------------------------
  0 H s       :     1.000000  s :     1.000000
  1 H s       :     1.000000  s :     1.000000


                     *******************************
                     * LOEWDIN POPULATION ANALYSIS *
                     *******************************

----------------------
LOEWDIN ATOMIC CHARGES
----------------------
   0 H :   -0.000000
   1 H :   -0.000000

-------------------------------
LOEWDIN REDUCED ORBITAL CHARGES
-------------------------------
  0 H s       :     1.000000  s :     1.000000
  1 H s       :     1.000000  s :     1.000000


                      *****************************
                      * MAYER POPULATION ANALYSIS *
                      *****************************

  NA   - Mulliken gross atomic population
  ZA   - Total nuclear charge
  QA   - Mulliken gross atomic charge
  VA   - Mayer's total valence
  BVA  - Mayer's bonded valence
  FA   - Mayer's free valence

  ATOM       NA         ZA         QA         VA         BVA        FA
  0 H      1.0000     1.0000    -0.0000     1.0067     0.9795     0.0272
  1 H      1.0000     1.0000     0.0000     1.0067     0.9795     0.0272

  Mayer bond orders larger than 0.100000
B(  0-H ,  1-H ) :   0.9795 



------------------------------------------------------------------------------- 
                                     TIMINGS                                   
------------------------------------------------------------------------------- 


Total execution time                   ...        1.912 sec

Fock Matrix Formation                  ...        0.138 sec (  7.2%)
Initial Guess                          ...        0.000 sec (  0.0%)
DIIS Solver                            ...        0.000 sec (  0.0%)
State Vector Update                    ...        0.000 sec (  0.0%)
Sigma-vector construction              ...        0.000 sec (  0.0%)


-------------------------   --------------------
FINAL SINGLE POINT ENERGY        -0.950678120794
-------------------------   --------------------

Storing actual gbw-file in orca.001.gbw ... done

                            ***************************************
                            *     ORCA property calculations      *
                            ***************************************

                                    ---------------------
                                    Active property flags
                                    ---------------------
   (+) Dipole Moment


------------------------------------------------------------------------------
                       ORCA ELECTRIC PROPERTIES CALCULATION
------------------------------------------------------------------------------

Dipole Moment Calculation                       ... on
Quadrupole Moment Calculation                   ... off
Polarizability Calculation                      ... off
GBWName                                         ... orca.gbw
Electron density file                           ... orca.scfp
The origin for moment calculation is the CENTER OF MASS  = ( 0.377945,  0.000000  0.000000)

-------------
DIPOLE MOMENT
-------------
                                X             Y             Z
Electronic contribution:      0.00000      -0.00000      -0.00000
Nuclear contribution   :      0.00000       0.00000       0.00000
                        -----------------------------------------
Total Dipole Moment    :      0.00000       0.00000       0.00000
                        -----------------------------------------
Magnitude (a.u.)       :      0.00000
Magnitude (Debye)      :      0.00000



--------------------
Rotational spectrum 
--------------------
 
Rotational constants in cm-1:     0.000000   209.048176   209.048176 
Rotational constants in MHz :     0.000000 6267106.642963 6267106.642963 

 Dipole components along the rotational axes: 
x,y,z [a.u.] :     0.000000     0.000000     0.000000 
x,y,z [Debye]:     0.000000     0.000000     0.000000 

 

                           *** MDCI DENSITY ***

------------------------------------------------------------------------------
                       ORCA ELECTRIC PROPERTIES CALCULATION
------------------------------------------------------------------------------

Dipole Moment Calculation                       ... on
Quadrupole Moment Calculation                   ... off
Polarizability Calculation                      ... off
GBWName                                         ... orca.gbw
Electron density file                           ... orca.mdcip
The origin for moment calculation is the CENTER OF MASS  = ( 0.377945,  0.000000  0.000000)

-------------
DIPOLE MOMENT
-------------
                                X             Y             Z
Electronic contribution:      0.00000      -0.00000      -0.00000
Nuclear contribution   :      0.00000       0.00000       0.00000
                        -----------------------------------------
Total Dipole Moment    :      0.00000       0.00000       0.00000
                        -----------------------------------------
Magnitude (a.u.)       :      0.00000
Magnitude (Debye)      :      0.00000



--------------------
Rotational spectrum 
--------------------
 
Rotational constants in cm-1:     0.000000   209.048176   209.048176 
Rotational constants in MHz :     0.000000 6267106.642963 6267106.642963 

 Dipole components along the rotational axes: 
x,y,z [a.u.] :     0.000000     0.000000     0.000000 
x,y,z [Debye]:     0.000000     0.000000     0.000000 

 

         *************************************************************
                                TRAJECTORY STEP   2
                  R  :   0.45000000
         *************************************************************
---------------------------------
CARTESIAN COORDINATES (ANGSTROEM)
---------------------------------
  H      0.000000    0.000000    0.000000
  H      0.450000    0.000000    0.000000

----------------------------
CARTESIAN COORDINATES (A.U.)
----------------------------
  NO LB      ZA    FRAG     MASS         X           Y           Z
   0 H     1.0000    0     1.008    0.000000    0.000000    0.000000
   1 H     1.0000    0     1.008    0.850377    0.000000    0.000000

--------------------------------
INTERNAL COORDINATES (ANGSTROEM)
--------------------------------
 H      0   0   0     0.000000000000     0.00000000     0.00000000
 H      1   0   0     0.450000000000     0.00000000     0.00000000

---------------------------
INTERNAL COORDINATES (A.U.)
---------------------------
 H      0   0   0     0.000000000000     0.00000000     0.00000000
 H      1   0   0     0.850376760265     0.00000000     0.00000000


Diagonalization of the overlap matrix:
Smallest eigenvalue                        ... 4.086e-02
Time for diagonalization                   ...    0.000 sec
Threshold for overlap eigenvalues          ... 1.000e-08
Number of eigenvalues below threshold      ... 0
Time for construction of square roots      ...    0.000 sec
Total time needed                          ...    0.000 sec

--------------
SCF ITERATIONS
--------------
ITER       Energy         Delta-E        Max-DP      RMS-DP      [F,P]     Damp
               ***  Starting incremental Fock matrix formation  ***
  0     -1.0074675376   0.000000000000 0.00403202  0.00183313  0.0297640 0.7000
  1     -1.0076896934  -0.000222155870 0.00360202  0.00163868  0.0233985 0.7000
                               ***Turning on DIIS***
  2     -1.0078642814  -0.000174587941 0.00926998  0.00421844  0.0176912 0.0000
                      *** Initiating the SOSCF procedure ***
                           *** Shutting down DIIS ***
                      *** Re-Reading the Fockian *** 
                      *** Removing any level shift *** 
ITER      Energy       Delta-E        Grad      Rot      Max-DP    RMS-DP
  3     -1.00906426  -0.0011999803  0.002581  0.002581  0.001536  0.000701
               *** Restarting incremental Fock matrix formation ***
  4     -1.00833499   0.0007292757  0.000361  0.000266  0.000254  0.000116
                 **** Energy Check signals convergence ****
              ***Rediagonalizing the Fockian in SOSCF/NRSCF***

               *****************************************************
               *                     SUCCESS                       *
               *           SCF CONVERGED AFTER   5 CYCLES          *
               *****************************************************

Total Energy       :           -1.00833521 Eh             -27.43820 eV
  Last Energy change         ...   -2.2106e-07  Tolerance :   1.0000e-06
  Last MAX-Density change    ...    4.5065e-05  Tolerance :   1.0000e-05
             **** THE GBW FILE WAS UPDATED (orca.gbw) ****
             **** DENSITY FILE WAS UPDATED (orca.scfp) ****
             **** ENERGY FILE WAS UPDATED (orca.en.tmp) ****
             **** THE GBW FILE WAS UPDATED (orca.gbw) ****
             **** DENSITY FILE WAS UPDATED (orca.scfp) ****
Total SCF time: 0 days 0 hours 0 min 0 sec 


------------------------------------------------------------------------------- 
                              ORCA-MATRIX DRIVEN CI                            
------------------------------------------------------------------------------- 

--------------------------------
AUTOMATIC CHOICE OF INCORE LEVEL
--------------------------------

Memory available                           ...    256.00 MB
Memory needed for S+T                      ...      0.00 MB
Memory needed for J+K                      ...      0.00 MB
Memory needed for DIIS                     ...      0.00 MB
Memory needed for 3-ext                    ...      0.00 MB
Memory needed for 4-ext                    ...      0.00 MB
Memory needed for triples                  ...      0.00 MB
 -> Final InCoreLevel    ... 5

Wavefunction type
-----------------
Correlation treatment                      ...     QCISD     
Single excitations                         ... ON
Orbital optimization                       ... OFF
Calculation of Z vector                    ... OFF
Calculation of Brueckner orbitals          ... OFF
Perturbative triple excitations            ... OFF
Calculation of F12 correction              ... OFF
Frozen core treatment                      ... chemical core (0 el)
Reference Wavefunction                     ... RHF
  Internal Orbitals:     0 ...    0 (  1 MO's/  2 electrons)
  Virtual  Orbitals:     1 ...    3 (  3 MO's              )
Number of AO's                             ...      4
Number of electrons                        ...      2
Number of correlated electrons             ...      2

Algorithmic settings
--------------------
Integral transformation                    ... AO direct full transformation
K(C) Formation                             ... FULL-MO TRAFO
Maximum number of iterations               ...        50
Convergence tolerance (max. residuum)      ... 2.500e-05
Level shift for amplitude update           ... 2.000e-01
Maximum number of DIIS vectors             ...         7
DIIS turned on at iteration                ...         0
Damping before turning on DIIS             ...     0.500
Damping after turning on DIIS              ...     0.000
Pair specific amplitude update             ... OFF
Natural orbital iterations                 ... OFF
Perturbative natural orbital generation    ... OFF
Printlevel                                 ... 2

Memory handling:
----------------
Maximum memory for working arrays          ...    256 MB
Data storage in matrix containers          ... UNCOMPRESSED
Data type for integral storage             ... DOUBLE
In-Core Storage of quantities:
   Amplitudes+Sigma Vector      ... YES
   J+K operators                ... YES
   DIIS vectors                 ... YES
   3-external integrals         ... YES
   4-external integrals         ... YES


Initializing the integral package          ... done
Warning: reference  - re-canonicalizations have been set to INT 1 VIRT 1

--------------------------
CLOSED-SHELL FOCK OPERATOR
--------------------------

<ss|ss>:           55 b            0 skpd (  0.0%)    0.000 s ( 0.001 ms/b)
Recanonicalizing the internal orbitals
Recanonicalizing the virtual orbitals
Time needed for Fock operator              ...            0.000 sec
Reference energy                           ...     -1.008335212

------------------------------
PARTIAL COULOMB TRANSFORMATION
------------------------------

Transformation type                        ... one-operator
Dimension of the basis                     ...    4
Number of internal MOs                     ...    4 (0-3)
Pair cutoff                                ... 0.000e+00 Eh
Number of AO pairs included in the trafo   ...   10
Total Number of distinct AO pairs          ...   10
Memory devoted for trafo                   ...  256.0 MB 
Max. Number of MO pairs treated together   ... 3355443      
Max. Number of MOs treated per batch       ... 838860      
Number Format for Storage                  ... Double (8 Byte)
AO-integral source                         ... DIRECT
Integral package used                      ... LIBINT

Starting integral evaluation:
<ss|**>:          100 b        0 skpd     0.000 s (  0.001 ms/b)
Closing buffer AOJ ( 0.00 GB; CompressionRatio= 0.87)
Collecting buffer AOJ 
    ... done with AO integral generation
Number of MO pairs included in the trafo   ...   10
    ... Now sorting integrals
IBATCH = 1 of  1
Closing buffer JAO ( 0.00 GB; CompressionRatio= 0.87)
Collecting buffer JAO 
TOTAL TIME for half transformation         ...     0.000 sec
AO-integral generation                     ...     0.000 sec
Half transformation                        ...     0.000 sec
J-integral sorting                         ...     0.000 sec

-------------------------- SECOND HALF TRANSFORMATION -------------------------
Formation of (pq|rs)                       ... ok (     0.000 sec)
Integral sorting                           ... ok (     0.000 sec)

------------------
CLOSED SHELL GUESS
------------------

Initial guess performed in     0.000 sec
E(0)                                       ...     -1.008335212
E(MP2)                                     ...     -0.013977165
Initial E(tot)                             ...     -1.022312378
<T|T>                                      ...      0.004136334
Number of pairs included                   ... 1
Total number of pairs                      ... 1

---------------------------
RHF QUADRATIC CI ITERATIONS
---------------------------

Number of amplitudes to be optimized       ... 12

Iter       E(tot)           E(Corr)          Delta-E          Residual     Time
  0     -1.022312378     -0.013977165      0.000000000      0.033573622    0.00
                           *** Turning on DIIS ***
  1     -1.025649882     -0.017314670     -0.003337505      0.009082511    0.00
  2     -1.027031421     -0.018696209     -0.001381539      0.000851786    0.00
  3     -1.027098912     -0.018763700     -0.000067491      0.000253783    0.00
  4     -1.027106945     -0.018771733     -0.000008033      0.000017000    0.00
               --- The Quadratic CI iterations have converged ---

-------------------
QUADRATIC CI ENERGY
-------------------

E(0)                                       ...     -1.008335212
E(CORR)                                    ...     -0.018771733
E(TOT)                                     ...     -1.027106945
Singles Norm <S|S>**1/2                    ...      0.001504400  
T1 diagnostic                              ...      0.001063772  

------------------
LARGEST AMPLITUDES
------------------
   0->  2   0->  2       0.058277
   0->  3   0->  3       0.038502
   0->  1   0->  1       0.034428
   0->  3   0->  1       0.027930
   0->  1   0->  3       0.027930
   0->  2  -1-> -1       0.001504
   0->  1  -1-> -1       0.000000
   0->  1   0->  2       0.000000
   0->  2   0->  1       0.000000
   0->  3  -1-> -1       0.000000
   0->  3   0->  2       0.000000
   0->  2   0->  3       0.000000


        !!!!!!!!!!!!!!!!!!!!!!!!!!!!!!!!!!!!!!!!!!!!!!!!!!!!!!!!!!!!!!!!!!!!!!!!!! 
        !  Warning: Densities are linearized densities !                         !
        !!!!!!!!!!!!!!!!!!!!!!!!!!!!!!!!!!!!!!!!!!!!!!!!!!!!!!!!!!!!!!!!!!!!!!!!!! 

Trace of internal density part =     -0.015252650
Trace of external density part =      0.015252650
NORM  =      1.007628588 sqrt=     1.003807047
W(HF) =      0.992429167
------------------------------------------------------------------------------
                           ORCA POPULATION ANALYSIS
------------------------------------------------------------------------------
Input electron density              ... orca.mdcip
BaseName (.gbw .S,...)              ... orca


------------------------------------------------------------------------------- 
                                     TIMINGS                                   
------------------------------------------------------------------------------- 


Total execution time                   ...        0.108 sec

Fock Matrix Formation                  ...        0.000 sec (  0.4%)
Initial Guess                          ...        0.000 sec (  0.0%)
DIIS Solver                            ...        0.000 sec (  0.1%)
State Vector Update                    ...        0.000 sec (  0.0%)
Sigma-vector construction              ...        0.000 sec (  0.4%)


-------------------------   --------------------
FINAL SINGLE POINT ENERGY        -1.027106944748
-------------------------   --------------------

Storing actual gbw-file in orca.002.gbw ... done

                            ***************************************
                            *     ORCA property calculations      *
                            ***************************************

                                    ---------------------
                                    Active property flags
                                    ---------------------
   (+) Dipole Moment


------------------------------------------------------------------------------
                       ORCA ELECTRIC PROPERTIES CALCULATION
------------------------------------------------------------------------------

Dipole Moment Calculation                       ... on
Quadrupole Moment Calculation                   ... off
Polarizability Calculation                      ... off
GBWName                                         ... orca.gbw
Electron density file                           ... orca.scfp
The origin for moment calculation is the CENTER OF MASS  = ( 0.425188,  0.000000  0.000000)

-------------
DIPOLE MOMENT
-------------
                                X             Y             Z
Electronic contribution:     -0.00000      -0.00000      -0.00000
Nuclear contribution   :      0.00000       0.00000       0.00000
                        -----------------------------------------
Total Dipole Moment    :     -0.00000       0.00000       0.00000
                        -----------------------------------------
Magnitude (a.u.)       :      0.00000
Magnitude (Debye)      :      0.00000



--------------------
Rotational spectrum 
--------------------
 
Rotational constants in cm-1:     0.000000   165.173867   165.173867 
Rotational constants in MHz :     0.000000 4951787.964811 4951787.964811 

 Dipole components along the rotational axes: 
x,y,z [a.u.] :    -0.000000     0.000000     0.000000 
x,y,z [Debye]:    -0.000000     0.000000     0.000000 

 

                           *** MDCI DENSITY ***

------------------------------------------------------------------------------
                       ORCA ELECTRIC PROPERTIES CALCULATION
------------------------------------------------------------------------------

Dipole Moment Calculation                       ... on
Quadrupole Moment Calculation                   ... off
Polarizability Calculation                      ... off
GBWName                                         ... orca.gbw
Electron density file                           ... orca.mdcip
The origin for moment calculation is the CENTER OF MASS  = ( 0.425188,  0.000000  0.000000)

-------------
DIPOLE MOMENT
-------------
                                X             Y             Z
Electronic contribution:      0.00000      -0.00000      -0.00000
Nuclear contribution   :      0.00000       0.00000       0.00000
                        -----------------------------------------
Total Dipole Moment    :      0.00000       0.00000       0.00000
                        -----------------------------------------
Magnitude (a.u.)       :      0.00000
Magnitude (Debye)      :      0.00000



--------------------
Rotational spectrum 
--------------------
 
Rotational constants in cm-1:     0.000000   165.173867   165.173867 
Rotational constants in MHz :     0.000000 4951787.964811 4951787.964811 

 Dipole components along the rotational axes: 
x,y,z [a.u.] :     0.000000     0.000000     0.000000 
x,y,z [Debye]:     0.000000     0.000000     0.000000 

 

         *************************************************************
                                TRAJECTORY STEP   3
                  R  :   0.50000000
         *************************************************************
---------------------------------
CARTESIAN COORDINATES (ANGSTROEM)
---------------------------------
  H      0.000000    0.000000    0.000000
  H      0.500000    0.000000    0.000000

----------------------------
CARTESIAN COORDINATES (A.U.)
----------------------------
  NO LB      ZA    FRAG     MASS         X           Y           Z
   0 H     1.0000    0     1.008    0.000000    0.000000    0.000000
   1 H     1.0000    0     1.008    0.944863    0.000000    0.000000

--------------------------------
INTERNAL COORDINATES (ANGSTROEM)
--------------------------------
 H      0   0   0     0.000000000000     0.00000000     0.00000000
 H      1   0   0     0.500000000000     0.00000000     0.00000000

---------------------------
INTERNAL COORDINATES (A.U.)
---------------------------
 H      0   0   0     0.000000000000     0.00000000     0.00000000
 H      1   0   0     0.944863066961     0.00000000     0.00000000


Diagonalization of the overlap matrix:
Smallest eigenvalue                        ... 4.945e-02
Time for diagonalization                   ...    0.000 sec
Threshold for overlap eigenvalues          ... 1.000e-08
Number of eigenvalues below threshold      ... 0
Time for construction of square roots      ...    0.000 sec
Total time needed                          ...    0.000 sec

--------------
SCF ITERATIONS
--------------
ITER       Energy         Delta-E        Max-DP      RMS-DP      [F,P]     Damp
               ***  Starting incremental Fock matrix formation  ***
  0     -1.0572298656   0.000000000000 0.00391463  0.00178506  0.0278354 0.7000
  1     -1.0574337703  -0.000203904762 0.00349547  0.00159530  0.0218687 0.7000
                               ***Turning on DIIS***
  2     -1.0575938600  -0.000160089712 0.00898977  0.00410440  0.0165220 0.0000
                      *** Initiating the SOSCF procedure ***
                           *** Shutting down DIIS ***
                      *** Re-Reading the Fockian *** 
                      *** Removing any level shift *** 
ITER      Energy       Delta-E        Grad      Rot      Max-DP    RMS-DP
  3     -1.05869623  -0.0011023731  0.002436  0.002436  0.001469  0.000674
               *** Restarting incremental Fock matrix formation ***
  4     -1.05802461   0.0006716212  0.000342  0.000253  0.000244  0.000112
                 **** Energy Check signals convergence ****
              ***Rediagonalizing the Fockian in SOSCF/NRSCF***

               *****************************************************
               *                     SUCCESS                       *
               *           SCF CONVERGED AFTER   5 CYCLES          *
               *****************************************************

Total Energy       :           -1.05802481 Eh             -28.79032 eV
  Last Energy change         ...   -1.9850e-07  Tolerance :   1.0000e-06
  Last MAX-Density change    ...    4.2739e-05  Tolerance :   1.0000e-05
             **** THE GBW FILE WAS UPDATED (orca.gbw) ****
             **** DENSITY FILE WAS UPDATED (orca.scfp) ****
             **** ENERGY FILE WAS UPDATED (orca.en.tmp) ****
             **** THE GBW FILE WAS UPDATED (orca.gbw) ****
             **** DENSITY FILE WAS UPDATED (orca.scfp) ****
Total SCF time: 0 days 0 hours 0 min 0 sec 


------------------------------------------------------------------------------- 
                              ORCA-MATRIX DRIVEN CI                            
------------------------------------------------------------------------------- 

--------------------------------
AUTOMATIC CHOICE OF INCORE LEVEL
--------------------------------

Memory available                           ...    256.00 MB
Memory needed for S+T                      ...      0.00 MB
Memory needed for J+K                      ...      0.00 MB
Memory needed for DIIS                     ...      0.00 MB
Memory needed for 3-ext                    ...      0.00 MB
Memory needed for 4-ext                    ...      0.00 MB
Memory needed for triples                  ...      0.00 MB
 -> Final InCoreLevel    ... 5

Wavefunction type
-----------------
Correlation treatment                      ...     QCISD     
Single excitations                         ... ON
Orbital optimization                       ... OFF
Calculation of Z vector                    ... OFF
Calculation of Brueckner orbitals          ... OFF
Perturbative triple excitations            ... OFF
Calculation of F12 correction              ... OFF
Frozen core treatment                      ... chemical core (0 el)
Reference Wavefunction                     ... RHF
  Internal Orbitals:     0 ...    0 (  1 MO's/  2 electrons)
  Virtual  Orbitals:     1 ...    3 (  3 MO's              )
Number of AO's                             ...      4
Number of electrons                        ...      2
Number of correlated electrons             ...      2

Algorithmic settings
--------------------
Integral transformation                    ... AO direct full transformation
K(C) Formation                             ... FULL-MO TRAFO
Maximum number of iterations               ...        50
Convergence tolerance (max. residuum)      ... 2.500e-05
Level shift for amplitude update           ... 2.000e-01
Maximum number of DIIS vectors             ...         7
DIIS turned on at iteration                ...         0
Damping before turning on DIIS             ...     0.500
Damping after turning on DIIS              ...     0.000
Pair specific amplitude update             ... OFF
Natural orbital iterations                 ... OFF
Perturbative natural orbital generation    ... OFF
Printlevel                                 ... 2

Memory handling:
----------------
Maximum memory for working arrays          ...    256 MB
Data storage in matrix containers          ... UNCOMPRESSED
Data type for integral storage             ... DOUBLE
In-Core Storage of quantities:
   Amplitudes+Sigma Vector      ... YES
   J+K operators                ... YES
   DIIS vectors                 ... YES
   3-external integrals         ... YES
   4-external integrals         ... YES


Initializing the integral package          ... done
Warning: reference  - re-canonicalizations have been set to INT 1 VIRT 1

--------------------------
CLOSED-SHELL FOCK OPERATOR
--------------------------

<ss|ss>:           55 b            0 skpd (  0.0%)    0.000 s ( 0.001 ms/b)
Recanonicalizing the internal orbitals
Recanonicalizing the virtual orbitals
Time needed for Fock operator              ...            0.001 sec
Reference energy                           ...     -1.058024815

------------------------------
PARTIAL COULOMB TRANSFORMATION
------------------------------

Transformation type                        ... one-operator
Dimension of the basis                     ...    4
Number of internal MOs                     ...    4 (0-3)
Pair cutoff                                ... 0.000e+00 Eh
Number of AO pairs included in the trafo   ...   10
Total Number of distinct AO pairs          ...   10
Memory devoted for trafo                   ...  256.0 MB 
Max. Number of MO pairs treated together   ... 3355443      
Max. Number of MOs treated per batch       ... 838860      
Number Format for Storage                  ... Double (8 Byte)
AO-integral source                         ... DIRECT
Integral package used                      ... LIBINT

Starting integral evaluation:
<ss|**>:          100 b        0 skpd     0.000 s (  0.001 ms/b)
Closing buffer AOJ ( 0.00 GB; CompressionRatio= 0.87)
Collecting buffer AOJ 
    ... done with AO integral generation
Number of MO pairs included in the trafo   ...   10
    ... Now sorting integrals
IBATCH = 1 of  1
Closing buffer JAO ( 0.00 GB; CompressionRatio= 0.87)
Collecting buffer JAO 
TOTAL TIME for half transformation         ...     0.000 sec
AO-integral generation                     ...     0.000 sec
Half transformation                        ...     0.000 sec
J-integral sorting                         ...     0.000 sec

-------------------------- SECOND HALF TRANSFORMATION -------------------------
Formation of (pq|rs)                       ... ok (     0.000 sec)
Integral sorting                           ... ok (     0.000 sec)

------------------
CLOSED SHELL GUESS
------------------

Initial guess performed in     0.000 sec
E(0)                                       ...     -1.058024815
E(MP2)                                     ...     -0.014627647
Initial E(tot)                             ...     -1.072652462
<T|T>                                      ...      0.004500573
Number of pairs included                   ... 1
Total number of pairs                      ... 1

---------------------------
RHF QUADRATIC CI ITERATIONS
---------------------------

Number of amplitudes to be optimized       ... 12

Iter       E(tot)           E(Corr)          Delta-E          Residual     Time
  0     -1.072652462     -0.014627647      0.000000000      0.033051818    0.00
                           *** Turning on DIIS ***
  1     -1.076232513     -0.018207698     -0.003580051      0.009271991    0.00
  2     -1.077776301     -0.019751486     -0.001543788      0.000998252    0.00
  3     -1.077854877     -0.019830062     -0.000078576      0.000251017    0.00
  4     -1.077863618     -0.019838803     -0.000008741      0.000024435    0.00
               --- The Quadratic CI iterations have converged ---

-------------------
QUADRATIC CI ENERGY
-------------------

E(0)                                       ...     -1.058024815
E(CORR)                                    ...     -0.019838803
E(TOT)                                     ...     -1.077863618
Singles Norm <S|S>**1/2                    ...      0.000436108  
T1 diagnostic                              ...      0.000308375  

------------------
LARGEST AMPLITUDES
------------------
   0->  2   0->  2       0.058174
   0->  3   0->  3       0.039971
   0->  1   0->  1       0.039909
   0->  1   0->  3       0.030894
   0->  3   0->  1       0.030894
   0->  2  -1-> -1       0.000436
   0->  1  -1-> -1       0.000000
   0->  3  -1-> -1       0.000000
   0->  2   0->  3       0.000000
   0->  3   0->  2       0.000000
   0->  1   0->  2       0.000000
   0->  2   0->  1       0.000000


        !!!!!!!!!!!!!!!!!!!!!!!!!!!!!!!!!!!!!!!!!!!!!!!!!!!!!!!!!!!!!!!!!!!!!!!!!! 
        !  Warning: Densities are linearized densities !                         !
        !!!!!!!!!!!!!!!!!!!!!!!!!!!!!!!!!!!!!!!!!!!!!!!!!!!!!!!!!!!!!!!!!!!!!!!!!! 

Trace of internal density part =     -0.016967429
Trace of external density part =      0.016967429
NORM  =      1.008483905 sqrt=     1.004232993
W(HF) =      0.991587467
------------------------------------------------------------------------------
                           ORCA POPULATION ANALYSIS
------------------------------------------------------------------------------
Input electron density              ... orca.mdcip
BaseName (.gbw .S,...)              ... orca


------------------------------------------------------------------------------- 
                                     TIMINGS                                   
------------------------------------------------------------------------------- 


Total execution time                   ...        0.112 sec

Fock Matrix Formation                  ...        0.001 sec (  0.5%)
Initial Guess                          ...        0.000 sec (  0.0%)
DIIS Solver                            ...        0.000 sec (  0.1%)
State Vector Update                    ...        0.000 sec (  0.0%)
Sigma-vector construction              ...        0.000 sec (  0.4%)


-------------------------   --------------------
FINAL SINGLE POINT ENERGY        -1.077863618272
-------------------------   --------------------

Storing actual gbw-file in orca.003.gbw ... done

                            ***************************************
                            *     ORCA property calculations      *
                            ***************************************

                                    ---------------------
                                    Active property flags
                                    ---------------------
   (+) Dipole Moment


------------------------------------------------------------------------------
                       ORCA ELECTRIC PROPERTIES CALCULATION
------------------------------------------------------------------------------

Dipole Moment Calculation                       ... on
Quadrupole Moment Calculation                   ... off
Polarizability Calculation                      ... off
GBWName                                         ... orca.gbw
Electron density file                           ... orca.scfp
The origin for moment calculation is the CENTER OF MASS  = ( 0.472432,  0.000000  0.000000)

-------------
DIPOLE MOMENT
-------------
                                X             Y             Z
Electronic contribution:     -0.00000      -0.00000      -0.00000
Nuclear contribution   :      0.00000       0.00000       0.00000
                        -----------------------------------------
Total Dipole Moment    :     -0.00000       0.00000       0.00000
                        -----------------------------------------
Magnitude (a.u.)       :      0.00000
Magnitude (Debye)      :      0.00000



--------------------
Rotational spectrum 
--------------------
 
Rotational constants in cm-1:     0.000000   133.790832   133.790832 
Rotational constants in MHz :     0.000000 4010948.251497 4010948.251497 

 Dipole components along the rotational axes: 
x,y,z [a.u.] :    -0.000000     0.000000     0.000000 
x,y,z [Debye]:    -0.000000     0.000000     0.000000 

 

                           *** MDCI DENSITY ***

------------------------------------------------------------------------------
                       ORCA ELECTRIC PROPERTIES CALCULATION
------------------------------------------------------------------------------

Dipole Moment Calculation                       ... on
Quadrupole Moment Calculation                   ... off
Polarizability Calculation                      ... off
GBWName                                         ... orca.gbw
Electron density file                           ... orca.mdcip
The origin for moment calculation is the CENTER OF MASS  = ( 0.472432,  0.000000  0.000000)

-------------
DIPOLE MOMENT
-------------
                                X             Y             Z
Electronic contribution:     -0.00000      -0.00000      -0.00000
Nuclear contribution   :      0.00000       0.00000       0.00000
                        -----------------------------------------
Total Dipole Moment    :     -0.00000       0.00000       0.00000
                        -----------------------------------------
Magnitude (a.u.)       :      0.00000
Magnitude (Debye)      :      0.00000



--------------------
Rotational spectrum 
--------------------
 
Rotational constants in cm-1:     0.000000   133.790832   133.790832 
Rotational constants in MHz :     0.000000 4010948.251497 4010948.251497 

 Dipole components along the rotational axes: 
x,y,z [a.u.] :    -0.000000     0.000000     0.000000 
x,y,z [Debye]:    -0.000000     0.000000     0.000000 

 

         *************************************************************
                                TRAJECTORY STEP   4
                  R  :   0.55000000
         *************************************************************
---------------------------------
CARTESIAN COORDINATES (ANGSTROEM)
---------------------------------
  H      0.000000    0.000000    0.000000
  H      0.550000    0.000000    0.000000

----------------------------
CARTESIAN COORDINATES (A.U.)
----------------------------
  NO LB      ZA    FRAG     MASS         X           Y           Z
   0 H     1.0000    0     1.008    0.000000    0.000000    0.000000
   1 H     1.0000    0     1.008    1.039349    0.000000    0.000000

--------------------------------
INTERNAL COORDINATES (ANGSTROEM)
--------------------------------
 H      0   0   0     0.000000000000     0.00000000     0.00000000
 H      1   0   0     0.550000000000     0.00000000     0.00000000

---------------------------
INTERNAL COORDINATES (A.U.)
---------------------------
 H      0   0   0     0.000000000000     0.00000000     0.00000000
 H      1   0   0     1.039349373657     0.00000000     0.00000000


Diagonalization of the overlap matrix:
Smallest eigenvalue                        ... 5.856e-02
Time for diagonalization                   ...    0.000 sec
Threshold for overlap eigenvalues          ... 1.000e-08
Number of eigenvalues below threshold      ... 0
Time for construction of square roots      ...    0.000 sec
Total time needed                          ...    0.000 sec

--------------
SCF ITERATIONS
--------------
ITER       Energy         Delta-E        Max-DP      RMS-DP      [F,P]     Damp
               ***  Starting incremental Fock matrix formation  ***
  0     -1.0894331575   0.000000000000 0.00379168  0.00173814  0.0260056 0.7000
  1     -1.0896200437  -0.000186886175 0.00338394  0.00155289  0.0204213 0.7000
                               ***Turning on DIIS***
  2     -1.0897666667  -0.000146622985 0.00869848  0.00399358  0.0154201 0.0000
                      *** Initiating the SOSCF procedure ***
                           *** Shutting down DIIS ***
                      *** Re-Reading the Fockian *** 
                      *** Removing any level shift *** 
ITER      Energy       Delta-E        Grad      Rot      Max-DP    RMS-DP
  3     -1.09077906  -0.0010123952  0.002310  0.002310  0.001408  0.000650
               *** Restarting incremental Fock matrix formation ***
  4     -1.09016065   0.0006184083  0.000325  0.000240  0.000234  0.000108
                 **** Energy Check signals convergence ****
              ***Rediagonalizing the Fockian in SOSCF/NRSCF***

               *****************************************************
               *                     SUCCESS                       *
               *           SCF CONVERGED AFTER   5 CYCLES          *
               *****************************************************

Total Energy       :           -1.09016083 Eh             -29.66478 eV
  Last Energy change         ...   -1.7909e-07  Tolerance :   1.0000e-06
  Last MAX-Density change    ...    4.0744e-05  Tolerance :   1.0000e-05
             **** THE GBW FILE WAS UPDATED (orca.gbw) ****
             **** DENSITY FILE WAS UPDATED (orca.scfp) ****
             **** ENERGY FILE WAS UPDATED (orca.en.tmp) ****
             **** THE GBW FILE WAS UPDATED (orca.gbw) ****
             **** DENSITY FILE WAS UPDATED (orca.scfp) ****
Total SCF time: 0 days 0 hours 0 min 0 sec 


------------------------------------------------------------------------------- 
                              ORCA-MATRIX DRIVEN CI                            
------------------------------------------------------------------------------- 

--------------------------------
AUTOMATIC CHOICE OF INCORE LEVEL
--------------------------------

Memory available                           ...    256.00 MB
Memory needed for S+T                      ...      0.00 MB
Memory needed for J+K                      ...      0.00 MB
Memory needed for DIIS                     ...      0.00 MB
Memory needed for 3-ext                    ...      0.00 MB
Memory needed for 4-ext                    ...      0.00 MB
Memory needed for triples                  ...      0.00 MB
 -> Final InCoreLevel    ... 5

Wavefunction type
-----------------
Correlation treatment                      ...     QCISD     
Single excitations                         ... ON
Orbital optimization                       ... OFF
Calculation of Z vector                    ... OFF
Calculation of Brueckner orbitals          ... OFF
Perturbative triple excitations            ... OFF
Calculation of F12 correction              ... OFF
Frozen core treatment                      ... chemical core (0 el)
Reference Wavefunction                     ... RHF
  Internal Orbitals:     0 ...    0 (  1 MO's/  2 electrons)
  Virtual  Orbitals:     1 ...    3 (  3 MO's              )
Number of AO's                             ...      4
Number of electrons                        ...      2
Number of correlated electrons             ...      2

Algorithmic settings
--------------------
Integral transformation                    ... AO direct full transformation
K(C) Formation                             ... FULL-MO TRAFO
Maximum number of iterations               ...        50
Convergence tolerance (max. residuum)      ... 2.500e-05
Level shift for amplitude update           ... 2.000e-01
Maximum number of DIIS vectors             ...         7
DIIS turned on at iteration                ...         0
Damping before turning on DIIS             ...     0.500
Damping after turning on DIIS              ...     0.000
Pair specific amplitude update             ... OFF
Natural orbital iterations                 ... OFF
Perturbative natural orbital generation    ... OFF
Printlevel                                 ... 2

Memory handling:
----------------
Maximum memory for working arrays          ...    256 MB
Data storage in matrix containers          ... UNCOMPRESSED
Data type for integral storage             ... DOUBLE
In-Core Storage of quantities:
   Amplitudes+Sigma Vector      ... YES
   J+K operators                ... YES
   DIIS vectors                 ... YES
   3-external integrals         ... YES
   4-external integrals         ... YES


Initializing the integral package          ... done
Warning: reference  - re-canonicalizations have been set to INT 1 VIRT 1

--------------------------
CLOSED-SHELL FOCK OPERATOR
--------------------------

<ss|ss>:           55 b            0 skpd (  0.0%)    0.000 s ( 0.001 ms/b)
Recanonicalizing the internal orbitals
Recanonicalizing the virtual orbitals
Time needed for Fock operator              ...            0.000 sec
Reference energy                           ...     -1.090160837

------------------------------
PARTIAL COULOMB TRANSFORMATION
------------------------------

Transformation type                        ... one-operator
Dimension of the basis                     ...    4
Number of internal MOs                     ...    4 (0-3)
Pair cutoff                                ... 0.000e+00 Eh
Number of AO pairs included in the trafo   ...   10
Total Number of distinct AO pairs          ...   10
Memory devoted for trafo                   ...  256.0 MB 
Max. Number of MO pairs treated together   ... 3355443      
Max. Number of MOs treated per batch       ... 838860      
Number Format for Storage                  ... Double (8 Byte)
AO-integral source                         ... DIRECT
Integral package used                      ... LIBINT

Starting integral evaluation:
<ss|**>:          100 b        0 skpd     0.000 s (  0.001 ms/b)
Closing buffer AOJ ( 0.00 GB; CompressionRatio= 0.87)
Collecting buffer AOJ 
    ... done with AO integral generation
Number of MO pairs included in the trafo   ...   10
    ... Now sorting integrals
IBATCH = 1 of  1
Closing buffer JAO ( 0.00 GB; CompressionRatio= 0.87)
Collecting buffer JAO 
TOTAL TIME for half transformation         ...     0.000 sec
AO-integral generation                     ...     0.000 sec
Half transformation                        ...     0.000 sec
J-integral sorting                         ...     0.000 sec

-------------------------- SECOND HALF TRANSFORMATION -------------------------
Formation of (pq|rs)                       ... ok (     0.000 sec)
Integral sorting                           ... ok (     0.000 sec)

------------------
CLOSED SHELL GUESS
------------------

Initial guess performed in     0.000 sec
E(0)                                       ...     -1.090160837
E(MP2)                                     ...     -0.015244300
Initial E(tot)                             ...     -1.105405136
<T|T>                                      ...      0.004885315
Number of pairs included                   ... 1
Total number of pairs                      ... 1

---------------------------
RHF QUADRATIC CI ITERATIONS
---------------------------

Number of amplitudes to be optimized       ... 12

Iter       E(tot)           E(Corr)          Delta-E          Residual     Time
  0     -1.105405136     -0.015244300      0.000000000      0.032274909    0.00
                           *** Turning on DIIS ***
  1     -1.109222213     -0.019061376     -0.003817077      0.010099563    0.00
  2     -1.110940580     -0.020779743     -0.001718367      0.001175717    0.00
  3     -1.111035184     -0.020874347     -0.000094604      0.000309993    0.00
  4     -1.111045779     -0.020884942     -0.000010595      0.000030498    0.00
  5     -1.111046029     -0.020885192     -0.000000250      0.000006291    0.00
               --- The Quadratic CI iterations have converged ---

-------------------
QUADRATIC CI ENERGY
-------------------

E(0)                                       ...     -1.090160837
E(CORR)                                    ...     -0.020885192
E(TOT)                                     ...     -1.111046029
Singles Norm <S|S>**1/2                    ...      0.000725647  
T1 diagnostic                              ...      0.000513110  

------------------
LARGEST AMPLITUDES
------------------
   0->  2   0->  2       0.057505
   0->  1   0->  1       0.046151
   0->  3   0->  3       0.041195
   0->  1   0->  3       0.033971
   0->  3   0->  1       0.033971
   0->  2  -1-> -1       0.000726
   0->  1  -1-> -1       0.000000
   0->  1   0->  2       0.000000
   0->  2   0->  1       0.000000
   0->  2   0->  3       0.000000
   0->  3   0->  2       0.000000
   0->  3  -1-> -1       0.000000


        !!!!!!!!!!!!!!!!!!!!!!!!!!!!!!!!!!!!!!!!!!!!!!!!!!!!!!!!!!!!!!!!!!!!!!!!!! 
        !  Warning: Densities are linearized densities !                         !
        !!!!!!!!!!!!!!!!!!!!!!!!!!!!!!!!!!!!!!!!!!!!!!!!!!!!!!!!!!!!!!!!!!!!!!!!!! 

Trace of internal density part =     -0.018884716
Trace of external density part =      0.018884716
NORM  =      1.009442885 sqrt=     1.004710349
W(HF) =      0.990645449
------------------------------------------------------------------------------
                           ORCA POPULATION ANALYSIS
------------------------------------------------------------------------------
Input electron density              ... orca.mdcip
BaseName (.gbw .S,...)              ... orca


------------------------------------------------------------------------------- 
                                     TIMINGS                                   
------------------------------------------------------------------------------- 


Total execution time                   ...        0.109 sec

Fock Matrix Formation                  ...        0.000 sec (  0.5%)
Initial Guess                          ...        0.000 sec (  0.0%)
DIIS Solver                            ...        0.000 sec (  0.1%)
State Vector Update                    ...        0.000 sec (  0.0%)
Sigma-vector construction              ...        0.000 sec (  0.4%)


-------------------------   --------------------
FINAL SINGLE POINT ENERGY        -1.111046028625
-------------------------   --------------------

Storing actual gbw-file in orca.004.gbw ... done

                            ***************************************
                            *     ORCA property calculations      *
                            ***************************************

                                    ---------------------
                                    Active property flags
                                    ---------------------
   (+) Dipole Moment


------------------------------------------------------------------------------
                       ORCA ELECTRIC PROPERTIES CALCULATION
------------------------------------------------------------------------------

Dipole Moment Calculation                       ... on
Quadrupole Moment Calculation                   ... off
Polarizability Calculation                      ... off
GBWName                                         ... orca.gbw
Electron density file                           ... orca.scfp
The origin for moment calculation is the CENTER OF MASS  = ( 0.519675,  0.000000  0.000000)

-------------
DIPOLE MOMENT
-------------
                                X             Y             Z
Electronic contribution:     -0.00000      -0.00000      -0.00000
Nuclear contribution   :      0.00000       0.00000       0.00000
                        -----------------------------------------
Total Dipole Moment    :     -0.00000       0.00000       0.00000
                        -----------------------------------------
Magnitude (a.u.)       :      0.00000
Magnitude (Debye)      :      0.00000



--------------------
Rotational spectrum 
--------------------
 
Rotational constants in cm-1:     0.000000   110.570936   110.570936 
Rotational constants in MHz :     0.000000 3314833.265700 3314833.265700 

 Dipole components along the rotational axes: 
x,y,z [a.u.] :    -0.000000     0.000000     0.000000 
x,y,z [Debye]:    -0.000000     0.000000     0.000000 

 

                           *** MDCI DENSITY ***

------------------------------------------------------------------------------
                       ORCA ELECTRIC PROPERTIES CALCULATION
------------------------------------------------------------------------------

Dipole Moment Calculation                       ... on
[...]
             **** ENERGY FILE WAS UPDATED (orca.en.tmp) ****
             **** THE GBW FILE WAS UPDATED (orca.gbw) ****
             **** DENSITY FILE WAS UPDATED (orca.scfp) ****
Total SCF time: 0 days 0 hours 0 min 0 sec 


------------------------------------------------------------------------------- 
                              ORCA-MATRIX DRIVEN CI                            
------------------------------------------------------------------------------- 

--------------------------------
AUTOMATIC CHOICE OF INCORE LEVEL
--------------------------------

Memory available                           ...    256.00 MB
Memory needed for S+T                      ...      0.00 MB
Memory needed for J+K                      ...      0.00 MB
Memory needed for DIIS                     ...      0.00 MB
Memory needed for 3-ext                    ...      0.00 MB
Memory needed for 4-ext                    ...      0.00 MB
Memory needed for triples                  ...      0.00 MB
 -> Final InCoreLevel    ... 5

Wavefunction type
-----------------
Correlation treatment                      ...     QCISD     
Single excitations                         ... ON
Orbital optimization                       ... OFF
Calculation of Z vector                    ... OFF
Calculation of Brueckner orbitals          ... OFF
Perturbative triple excitations            ... OFF
Calculation of F12 correction              ... OFF
Frozen core treatment                      ... chemical core (0 el)
Reference Wavefunction                     ... RHF
  Internal Orbitals:     0 ...    0 (  1 MO's/  2 electrons)
  Virtual  Orbitals:     1 ...    3 (  3 MO's              )
Number of AO's                             ...      4
Number of electrons                        ...      2
Number of correlated electrons             ...      2

Algorithmic settings
--------------------
Integral transformation                    ... AO direct full transformation
K(C) Formation                             ... FULL-MO TRAFO
Maximum number of iterations               ...        50
Convergence tolerance (max. residuum)      ... 2.500e-05
Level shift for amplitude update           ... 2.000e-01
Maximum number of DIIS vectors             ...         7
DIIS turned on at iteration                ...         0
Damping before turning on DIIS             ...     0.500
Damping after turning on DIIS              ...     0.000
Pair specific amplitude update             ... OFF
Natural orbital iterations                 ... OFF
Perturbative natural orbital generation    ... OFF
Printlevel                                 ... 2

Memory handling:
----------------
Maximum memory for working arrays          ...    256 MB
Data storage in matrix containers          ... UNCOMPRESSED
Data type for integral storage             ... DOUBLE
In-Core Storage of quantities:
   Amplitudes+Sigma Vector      ... YES
   J+K operators                ... YES
   DIIS vectors                 ... YES
   3-external integrals         ... YES
   4-external integrals         ... YES


Initializing the integral package          ... done
Warning: reference  - re-canonicalizations have been set to INT 1 VIRT 1

--------------------------
CLOSED-SHELL FOCK OPERATOR
--------------------------

<ss|ss>:           55 b            0 skpd (  0.0%)    0.000 s ( 0.001 ms/b)
Recanonicalizing the internal orbitals
Recanonicalizing the virtual orbitals
Time needed for Fock operator              ...            0.000 sec
Reference energy                           ...     -0.916271246

------------------------------
PARTIAL COULOMB TRANSFORMATION
------------------------------

Transformation type                        ... one-operator
Dimension of the basis                     ...    4
Number of internal MOs                     ...    4 (0-3)
Pair cutoff                                ... 0.000e+00 Eh
Number of AO pairs included in the trafo   ...   10
Total Number of distinct AO pairs          ...   10
Memory devoted for trafo                   ...  256.0 MB 
Max. Number of MO pairs treated together   ... 3355443      
Max. Number of MOs treated per batch       ... 838860      
Number Format for Storage                  ... Double (8 Byte)
AO-integral source                         ... DIRECT
Integral package used                      ... LIBINT

Starting integral evaluation:
<ss|**>:          100 b        0 skpd     0.000 s (  0.001 ms/b)
Closing buffer AOJ ( 0.00 GB; CompressionRatio= 0.87)
Collecting buffer AOJ 
    ... done with AO integral generation
Number of MO pairs included in the trafo   ...   10
    ... Now sorting integrals
IBATCH = 1 of  1
Closing buffer JAO ( 0.00 GB; CompressionRatio= 0.87)
Collecting buffer JAO 
TOTAL TIME for half transformation         ...     0.000 sec
AO-integral generation                     ...     0.000 sec
Half transformation                        ...     0.000 sec
J-integral sorting                         ...     0.000 sec

-------------------------- SECOND HALF TRANSFORMATION -------------------------
Formation of (pq|rs)                       ... ok (     0.000 sec)
Integral sorting                           ... ok (     0.000 sec)

------------------
CLOSED SHELL GUESS
------------------

Initial guess performed in     0.000 sec
E(0)                                       ...     -0.916271246
E(MP2)                                     ...     -0.046135200
Initial E(tot)                             ...     -0.962406446
<T|T>                                      ...      0.057112495
Number of pairs included                   ... 1
Total number of pairs                      ... 1

---------------------------
RHF QUADRATIC CI ITERATIONS
---------------------------

Number of amplitudes to be optimized       ... 12

Iter       E(tot)           E(Corr)          Delta-E          Residual     Time
  0     -0.962406446     -0.046135200      0.000000000      0.098123957    0.00
                           *** Turning on DIIS ***
  1     -0.980746157     -0.064474911     -0.018339712      0.067058709    0.00
  2     -1.010872215     -0.094600969     -0.030126058      0.007175053    0.00
  3     -1.014776603     -0.098505357     -0.003904388      0.001208927    0.00
  4     -1.014215791     -0.097944544      0.000560813      0.000224165    0.00
  5     -1.014332778     -0.098061532     -0.000116988      0.000063668    0.00
  6     -1.014310578     -0.098039331      0.000022201      0.000006468    0.00
               --- The Quadratic CI iterations have converged ---

-------------------
QUADRATIC CI ENERGY
-------------------

E(0)                                       ...     -0.916271246
E(CORR)                                    ...     -0.098039331
E(TOT)                                     ...     -1.014310578
Singles Norm <S|S>**1/2                    ...      0.054690043  
T1 diagnostic                              ...      0.038671700  

------------------
LARGEST AMPLITUDES
------------------
   0->  1   0->  1       0.534396
   0->  1   0->  3       0.069443
   0->  3   0->  1       0.069443
   0->  2  -1-> -1       0.054690
   0->  3   0->  3       0.014419
   0->  2   0->  2       0.005461
   0->  3  -1-> -1       0.000000
   0->  2   0->  1       0.000000
   0->  1   0->  2       0.000000
   0->  1  -1-> -1       0.000000
   0->  3   0->  2       0.000000
   0->  2   0->  3       0.000000


        !!!!!!!!!!!!!!!!!!!!!!!!!!!!!!!!!!!!!!!!!!!!!!!!!!!!!!!!!!!!!!!!!!!!!!!!!! 
        !  Warning: Densities are linearized densities !                         !
        !!!!!!!!!!!!!!!!!!!!!!!!!!!!!!!!!!!!!!!!!!!!!!!!!!!!!!!!!!!!!!!!!!!!!!!!!! 

Trace of internal density part =     -0.596904337
Trace of external density part =      0.596904337
NORM  =      1.301443169 sqrt=     1.140808121
W(HF) =      0.768377770
------------------------------------------------------------------------------
                           ORCA POPULATION ANALYSIS
------------------------------------------------------------------------------
Input electron density              ... orca.mdcip
BaseName (.gbw .S,...)              ... orca


------------------------------------------------------------------------------- 
                                     TIMINGS                                   
------------------------------------------------------------------------------- 


Total execution time                   ...        0.138 sec

Fock Matrix Formation                  ...        0.000 sec (  0.3%)
Initial Guess                          ...        0.000 sec (  0.0%)
DIIS Solver                            ...        0.000 sec (  0.1%)
State Vector Update                    ...        0.000 sec (  0.0%)
Sigma-vector construction              ...        0.000 sec (  0.4%)


-------------------------   --------------------
FINAL SINGLE POINT ENERGY        -1.014310577764
-------------------------   --------------------

Storing actual gbw-file in orca.033.gbw ... done

                            ***************************************
                            *     ORCA property calculations      *
                            ***************************************

                                    ---------------------
                                    Active property flags
                                    ---------------------
   (+) Dipole Moment


------------------------------------------------------------------------------
                       ORCA ELECTRIC PROPERTIES CALCULATION
------------------------------------------------------------------------------

Dipole Moment Calculation                       ... on
Quadrupole Moment Calculation                   ... off
Polarizability Calculation                      ... off
GBWName                                         ... orca.gbw
Electron density file                           ... orca.scfp
The origin for moment calculation is the CENTER OF MASS  = ( 1.889726,  0.000000  0.000000)

-------------
DIPOLE MOMENT
-------------
                                X             Y             Z
Electronic contribution:     -0.00000      -0.00000      -0.00000
Nuclear contribution   :      0.00000       0.00000       0.00000
                        -----------------------------------------
Total Dipole Moment    :     -0.00000       0.00000       0.00000
                        -----------------------------------------
Magnitude (a.u.)       :      0.00000
Magnitude (Debye)      :      0.00000



--------------------
Rotational spectrum 
--------------------
 
Rotational constants in cm-1:     0.000000     8.361927     8.361927 
Rotational constants in MHz :     0.000000 250684.265719 250684.265719 

 Dipole components along the rotational axes: 
x,y,z [a.u.] :    -0.000000     0.000000     0.000000 
x,y,z [Debye]:    -0.000000     0.000000     0.000000 

 

                           *** MDCI DENSITY ***

------------------------------------------------------------------------------
                       ORCA ELECTRIC PROPERTIES CALCULATION
------------------------------------------------------------------------------

Dipole Moment Calculation                       ... on
Quadrupole Moment Calculation                   ... off
Polarizability Calculation                      ... off
GBWName                                         ... orca.gbw
Electron density file                           ... orca.mdcip
The origin for moment calculation is the CENTER OF MASS  = ( 1.889726,  0.000000  0.000000)

-------------
DIPOLE MOMENT
-------------
                                X             Y             Z
Electronic contribution:      0.00000      -0.00000      -0.00000
Nuclear contribution   :      0.00000       0.00000       0.00000
                        -----------------------------------------
Total Dipole Moment    :      0.00000       0.00000       0.00000
                        -----------------------------------------
Magnitude (a.u.)       :      0.00000
Magnitude (Debye)      :      0.00000



--------------------
Rotational spectrum 
--------------------
 
Rotational constants in cm-1:     0.000000     8.361927     8.361927 
Rotational constants in MHz :     0.000000 250684.265719 250684.265719 

 Dipole components along the rotational axes: 
x,y,z [a.u.] :     0.000000     0.000000     0.000000 
x,y,z [Debye]:     0.000000     0.000000     0.000000 

 
                              **** TRAJECTORY DONE ***

                         SUMMARY OF THE CALCULATED SURFACE

------------------
TRAJECTORY RESULTS
------------------

Column   1: R

The Calculated Surface using the 'Actual Energy'
   0.40000000  -0.95067812
   0.45000000  -1.02710694
   0.50000000  -1.07786362
   0.55000000  -1.11104603
   0.60000000  -1.13195351
   0.65000000  -1.14416415
   0.70000000  -1.15015688
   0.75000000  -1.15168857
   0.80000000  -1.15002787
   0.85000000  -1.14610365
   0.90000000  -1.14060228
   0.95000000  -1.13403368
   1.00000000  -1.12677789
   1.05000000  -1.11911883
   1.10000000  -1.11126897
   1.15000000  -1.10338757
   1.20000000  -1.09559402
   1.25000000  -1.08797762
   1.30000000  -1.08060488
   1.35000000  -1.07352480
   1.40000000  -1.06677292
   1.45000000  -1.06037421
   1.50000000  -1.05434559
   1.55000000  -1.04869641
   1.60000000  -1.04343125
   1.65000000  -1.03854967
   1.70000000  -1.03404712
   1.75000000  -1.02991540
   1.80000000  -1.02613600
   1.85000000  -1.02270575
   1.90000000  -1.01960382
   1.95000000  -1.01681197
   2.00000000  -1.01431058

                        *******************************
                        *   FIT OF THE ACT-ENERGY PES *
                        *******************************
-------------------------------
POTENTIAL ENERGY SURFACE =   0
-------------------------------

Minimum found after 13 iterations
Equilibrium distance and its energy from the interpolated PES:
  Re      =   0.74618 Angstroem  (  1.41008 Bohr)
  E(Re)   =    -1.151698 Eh 
  dE/dR   = -1.623e-09 (1.378e-02 CHEB)
  d2E/dR2 =    0.362300 (   0.393412 CHEB) (   0.475664 NUM)
  d3E/dR3 =   -1.464613 (  27.966258 CHEB)

Spectroscopic constants:
  we =    4375.8 cm**-1 (based on SPLINE)
  we =    4559.8 cm**-1 (based on CHEB)
  we =    5013.8 cm**-1 (based on NUM)

Performing Morse fit ...
Morse-Fit Results:
 Te(adiabatic)   =    -536.3 cm**-1         = -0.066 eV
 d2E/dR**2 (Morse)=      0.403164555 
 d3E/dR**3 (Morse)=     -1.357926011 
 d4E/dR**4 (Morse)=      3.557340208 
 E0               =     -1.154141391 Eh  RMS=8.76e-07
 Re               =   0.75279 Angstroem      =  1.42257 Bohr RMS=7.78e-06)
 De(Morse)        =   4.35169 eV             =  35098.8 cm**-1 RMS=2.83e-06
 D0(Morse)        =   4.06554 eV
 beta             =   1.12272 au          RMS=2.35e-05
 we               =   4615.9 cm**-1
 wexe             =    151.7 cm**-1
 Displacement   =    0.0066 Angstroem      =  0.01248 Bohr

The Calculated Surface using the SCF energy
   0.40000000  -0.93300420
   0.45000000  -1.00833521
   0.50000000  -1.05802481
   0.55000000  -1.09016083
   0.60000000  -1.11003089
   0.65000000  -1.12119782
   0.70000000  -1.12612316
   0.75000000  -1.12654503
   0.80000000  -1.12371294
   0.85000000  -1.11853710
   0.90000000  -1.11168637
   0.95000000  -1.10365471
   1.00000000  -1.09480796
   1.05000000  -1.08541767
   1.10000000  -1.07568569
   1.15000000  -1.06576227
   1.20000000  -1.05575928
   1.25000000  -1.04575996
   1.30000000  -1.03582610
   1.35000000  -1.02600344
   1.40000000  -1.01632567
   1.45000000  -1.00681757
   1.50000000  -0.99749729
   1.55000000  -0.98837808
   1.60000000  -0.97946955
   1.65000000  -0.97077859
   1.70000000  -0.96231011
   1.75000000  -0.95406733
   1.80000000  -0.94605219
   1.85000000  -0.93826551
   1.90000000  -0.93070721
   1.95000000  -0.92337636
   2.00000000  -0.91627125

                        *******************************
                        *       FIT OF THE SCF PES    *
                        *******************************
-------------------------------
POTENTIAL ENERGY SURFACE =   0
-------------------------------

Minimum found after 17 iterations
Equilibrium distance and its energy from the interpolated PES:
  Re      =   0.72996 Angstroem  (  1.37942 Bohr)
  E(Re)   =    -1.126828 Eh 
  dE/dR   = -9.833e-10 (1.301e-02 CHEB)
  d2E/dR2 =    0.412953 (   0.451805 CHEB) (   0.532121 NUM)
  d3E/dR3 =   -1.432172 (  31.083477 CHEB)

Spectroscopic constants:
  we =    4671.6 cm**-1 (based on SPLINE)
  we =    4886.5 cm**-1 (based on CHEB)
  we =    5303.0 cm**-1 (based on NUM)

Performing Morse fit ...
Morse-Fit Results:
 Te(adiabatic)   =    -624.1 cm**-1         = -0.077 eV
 d2E/dR**2 (Morse)=      0.432258769 
 d3E/dR**3 (Morse)=     -1.171246078 
 d4E/dR**4 (Morse)=      2.468357260 
 E0               =     -1.129672039 Eh  RMS=4.38e-06
 Re               =   0.75618 Angstroem      =  1.42897 Bohr RMS=1.90e-05)
 De(Morse)        =   7.20939 eV             =  58147.6 cm**-1 RMS=1.63e-05
 D0(Morse)        =   6.91309 eV
 beta             =   0.90320 au          RMS=3.24e-05
 we               =   4779.6 cm**-1
 wexe             =     98.2 cm**-1
 Displacement   =    0.0262 Angstroem      =  0.04955 Bohr

The Calculated Surface using the MDCI energy
   0.40000000  -0.95067812
   0.45000000  -1.02710694
   0.50000000  -1.07786362
   0.55000000  -1.11104603
   0.60000000  -1.13195351
   0.65000000  -1.14416415
   0.70000000  -1.15015688
   0.75000000  -1.15168857
   0.80000000  -1.15002787
   0.85000000  -1.14610365
   0.90000000  -1.14060228
   0.95000000  -1.13403368
   1.00000000  -1.12677789
   1.05000000  -1.11911883
   1.10000000  -1.11126897
   1.15000000  -1.10338757
   1.20000000  -1.09559402
   1.25000000  -1.08797762
   1.30000000  -1.08060488
   1.35000000  -1.07352480
   1.40000000  -1.06677292
   1.45000000  -1.06037421
   1.50000000  -1.05434559
   1.55000000  -1.04869641
   1.60000000  -1.04343125
   1.65000000  -1.03854967
   1.70000000  -1.03404712
   1.75000000  -1.02991540
   1.80000000  -1.02613600
   1.85000000  -1.02270575
   1.90000000  -1.01960382
   1.95000000  -1.01681197
   2.00000000  -1.01431058

                        *******************************
                        *      FIT OF THE MDCI PES    *
                        *******************************
-------------------------------
POTENTIAL ENERGY SURFACE =   0
-------------------------------

Minimum found after 13 iterations
Equilibrium distance and its energy from the interpolated PES:
  Re      =   0.74618 Angstroem  (  1.41008 Bohr)
  E(Re)   =    -1.151698 Eh 
  dE/dR   = -1.623e-09 (1.378e-02 CHEB)
  d2E/dR2 =    0.362300 (   0.393412 CHEB) (   0.475664 NUM)
  d3E/dR3 =   -1.464613 (  27.966258 CHEB)

Spectroscopic constants:
  we =    4375.8 cm**-1 (based on SPLINE)
  we =    4559.8 cm**-1 (based on CHEB)
  we =    5013.8 cm**-1 (based on NUM)

Performing Morse fit ...
Morse-Fit Results:
 Te(adiabatic)   =    -536.3 cm**-1         = -0.066 eV
 d2E/dR**2 (Morse)=      0.403164555 
 d3E/dR**3 (Morse)=     -1.357926011 
 d4E/dR**4 (Morse)=      3.557340208 
 E0               =     -1.154141391 Eh  RMS=8.76e-07
 Re               =   0.75279 Angstroem      =  1.42257 Bohr RMS=7.78e-06)
 De(Morse)        =   4.35169 eV             =  35098.8 cm**-1 RMS=2.83e-06
 D0(Morse)        =   4.06554 eV
 beta             =   1.12272 au          RMS=2.35e-05
 we               =   4615.9 cm**-1
 wexe             =    151.7 cm**-1
 Displacement   =    0.0066 Angstroem      =  0.01248 Bohr


Timings for individual modules:

Sum of individual times         ...       43.573 sec (=   0.726 min)
GTO integral calculation        ...       11.598 sec (=   0.193 min)  26.6 %
SCF iterations                  ...       18.133 sec (=   0.302 min)  41.6 %
MDCI module                     ...       13.842 sec (=   0.231 min)  31.8 %
                             ****ORCA TERMINATED NORMALLY****
TOTAL RUN TIME: 0 days 0 hours 0 minutes 50 seconds 447 msec
