
                                 *****************
                                 * O   R   C   A *
                                 *****************

           --- An Ab Initio, DFT and Semiempirical electronic structure package ---

                  #######################################################
                  #                        -***-                        #
                  #          Department of theory and spectroscopy      #
                  #               Directorship: Frank Neese             #
                  #        Max Planck Institute fuer Kohlenforschung    #
                  #                Kaiser Wilhelm Platz 1               #
                  #                 D-45470 Muelheim/Ruhr               #
                  #                      Germany                        #
                  #                                                     #
                  #                  All rights reserved                #
                  #                        -***-                        #
                  #######################################################


                         Program Version 4.2.1 -  RELEASE  -


 With contributions from (in alphabetic order):
   Daniel Aravena         : Magnetic Suceptibility
   Michael Atanasov       : Ab Initio Ligand Field Theory (pilot matlab implementation)
   Alexander A. Auer      : GIAO ZORA, VPT2
   Ute Becker             : Parallelization
   Giovanni Bistoni       : ED, misc. LED, open-shell LED, HFLD
   Martin Brehm           : Molecular dynamics
   Dmytro Bykov           : SCF Hessian
   Vijay G. Chilkuri      : MRCI spin determinant printing, contributions to CSF-ICE
   Dipayan Datta          : RHF DLPNO-CCSD density
   Achintya Kumar Dutta   : EOM-CC, STEOM-CC
   Dmitry Ganyushin       : Spin-Orbit,Spin-Spin,Magnetic field MRCI
   Miquel Garcia          : C-PCM Hessian, Gaussian charge scheme
   Yang Guo               : DLPNO-NEVPT2, CIM, IAO-localization
   Andreas Hansen         : Spin unrestricted coupled pair/coupled cluster methods
   Benjamin Helmich-Paris : CASSCF linear response (MC-RPA)
   Lee Huntington         : MR-EOM, pCC
   Robert Izsak           : Overlap fitted RIJCOSX, COSX-SCS-MP3, EOM
   Christian Kollmar      : KDIIS, OOCD, Brueckner-CCSD(T), CCSD density
   Simone Kossmann        : Meta GGA functionals, TD-DFT gradient, OOMP2, MP2 Hessian
   Martin Krupicka        : AUTO-CI
   Lucas Lang             : DCDCAS
   Dagmar Lenk            : GEPOL surface, SMD
   Dimitrios Liakos       : Extrapolation schemes; Compound Job, initial MDCI parallelization
   Dimitrios Manganas     : Further ROCIS development; embedding schemes
   Dimitrios Pantazis     : SARC Basis sets
   Taras Petrenko         : DFT Hessian,TD-DFT gradient, ASA, ECA, R-Raman, ABS, FL, XAS/XES, NRVS
   Peter Pinski           : DLPNO-MP2, DLPNO-MP2 Gradient
   Christoph Reimann      : Effective Core Potentials
   Marius Retegan         : Local ZFS, SOC
   Christoph Riplinger    : Optimizer, TS searches, QM/MM, DLPNO-CCSD(T), (RO)-DLPNO pert. Triples
   Tobias Risthaus        : Range-separated hybrids, TD-DFT gradient, RPA, STAB
   Michael Roemelt        : Original ROCIS implementation
   Masaaki Saitow         : Open-shell DLPNO-CCSD energy and density
   Barbara Sandhoefer     : DKH picture change effects
   Avijit Sen             : IP-ROCIS
   Kantharuban Sivalingam : CASSCF convergence, NEVPT2, FIC-MRCI
   Bernardo de Souza      : ESD, SOC TD-DFT
   Georgi Stoychev        : AutoAux, RI-MP2 NMR
   Willem Van den Heuvel  : Paramagnetic NMR
   Boris Wezisla          : Elementary symmetry handling
   Frank Wennmohs         : Technical directorship


 We gratefully acknowledge several colleagues who have allowed us to
 interface, adapt or use parts of their codes:
   Stefan Grimme, W. Hujo, H. Kruse,             : VdW corrections, initial TS optimization,
                  C. Bannwarth                     DFT functionals, gCP, sTDA/sTD-DF
   Ed Valeev, F. Pavosevic, A. Kumar             : LibInt (2-el integral package), F12 methods
   Garnet Chan, S. Sharma, J. Yang, R. Olivares  : DMRG
   Ulf Ekstrom                                   : XCFun DFT Library
   Mihaly Kallay                                 : mrcc  (arbitrary order and MRCC methods)
   Andreas Klamt, Michael Diedenhofen            : otool_cosmo (COSMO solvation model)
   Jiri Pittner, Ondrej Demel                    : Mk-CCSD
   Frank Weinhold                                : gennbo (NPA and NBO analysis)
   Christopher J. Cramer and Donald G. Truhlar   : smd solvation model
   Lars Goerigk                                  : TD-DFT with DH, B97 family of functionals
   V. Asgeirsson, H. Jonsson                     : NEB implementation
   FAccTs GmbH                                   : IRC, NEB, NEB-TS, Multilevel, MM, QM/MM, CI optimization
   S Lehtola, MJT Oliveira, MAL Marques          : LibXC Library


 Your calculation uses the libint2 library for the computation of 2-el integrals
 For citations please refer to: http://libint.valeyev.net

 Your ORCA version has been built with support for libXC version: 4.2.3
 For citations please refer to: https://tddft.org/programs/libxc/

 This ORCA versions uses:
   CBLAS   interface :  Fast vector & matrix operations
   LAPACKE interface :  Fast linear algebra routines
   SCALAPACK package :  Parallel linear algebra routines


----- Orbital basis set information -----
Your calculation utilizes the basis: aug-cc-pVTZ 
    H, B-Ne : Obtained from the ccRepo (grant-hill.group.shef.ac.uk/ccrepo) Feb. 2017
              R. A. Kendall, T. H. Dunning, Jr., R. J. Harrison, J. Chem. Phys. 96, 6796 (1992)
         He : Obtained from the ccRepo (grant-hill.group.shef.ac.uk/ccrepo) Feb. 2017
              D. E. Woon, T. H. Dunning, Jr., J. Chem. Phys. 100, 2975 (1994)
  Li-Be, Na : Obtained from the ccRepo (grant-hill.group.shef.ac.uk/ccrepo) Feb. 2017
              B. P. Prascher, D. E. Woon, K. A. Peterson, T. H. Dunning, Jr., A. K. Wilson, Theor. Chem. Acc. 128, 69 (2011)
         Mg : Obtained from the Peterson Research Group Website (tyr0.chem.wsu.edu/~kipeters) Feb. 2017
              B. P. Prascher, D. E. Woon, K. A. Peterson, T. H. Dunning, Jr., A. K. Wilson, Theor. Chem. Acc. 128, 69 (2011)
      Al-Ar : Obtained from the ccRepo (grant-hill.group.shef.ac.uk/ccrepo) Feb. 2017
              D. E. Woon, T. H. Dunning, Jr., J. Chem. Phys. 98, 1358 (1993)
      Sc-Zn : Obtained from the ccRepo (grant-hill.group.shef.ac.uk/ccrepo) Feb. 2017
              N. B. Balabanov, K. A. Peterson, J. Chem. Phys. 123, 064107 (2005)
              N. B. Balabanov, K. A. Peterson, J. Chem. Phys. 125, 074110 (2006)
      Ga-Kr : Obtained from the ccRepo (grant-hill.group.shef.ac.uk/ccrepo) Feb. 2017
              A. K. Wilson, D. E. Woon, K. A. Peterson, T. H. Dunning, Jr., J. Chem. Phys. 110, 7667 (1999)
     Ag, Au : Obtained from the Peterson Research Group Website (tyr0.chem.wsu.edu/~kipeters) Feb. 2017
              K. A. Peterson, C. Puzzarini, Theor. Chem. Acc. 114, 283 (2005)

================================================================================
                                        WARNINGS
                       Please study these warnings very carefully!
================================================================================


WARNING: Geometry Optimization
  ===> : Switching off AutoStart
         For restart on a previous wavefunction, please use MOREAD

INFO   : the flag for use of LIBINT has been found!

================================================================================
                                       INPUT FILE
================================================================================
NAME = orca.inp
|  1> !UHF aug-cc-pVTZ OPT
|  2> 
|  3> !veryslowconv
|  4> 
|  5> %scf
|  6> 
|  7> maxiter 1800
|  8> 
|  9> end
| 10> 
| 11> 
| 12> 
| 13> %geom
| 14>   Constraints
| 15>     { B 0 4  C } # Bond constraint on C0--F4
| 16>   end
| 17> end
| 18> 
| 19> *xyz 0 1
| 20> C    -1.923962868    1.371455279    -0.158139983
| 21> H    -1.206351869    2.177670061    -0.100184483
| 22> H    -2.630103173    1.444466499    0.656931721
| 23> H    -2.445202932    1.406501165    -1.104389016
| 24> F    0.262132212    -2.549308607    0.155864550
| 25> **                         ****END OF INPUT****
================================================================================

                       *****************************
                       * Geometry Optimization Run *
                       *****************************

Geometry optimization settings:
Update method            Update   .... BFGS
Choice of coordinates    CoordSys .... Z-matrix Internals
Initial Hessian          InHess   .... Almoef's Model

Convergence Tolerances:
Energy Change            TolE     ....  5.0000e-06 Eh
Max. Gradient            TolMAXG  ....  3.0000e-04 Eh/bohr
RMS Gradient             TolRMSG  ....  1.0000e-04 Eh/bohr
Max. Displacement        TolMAXD  ....  4.0000e-03 bohr
RMS Displacement         TolRMSD  ....  2.0000e-03 bohr
Strict Convergence                ....  False
------------------------------------------------------------------------------
                        ORCA OPTIMIZATION COORDINATE SETUP
------------------------------------------------------------------------------

The optimization will be done in new redundant internal coordinates
Making redundant internal coordinates   ...  (new redundants) done
Evaluating the initial hessian          ...  (Almloef) done
Evaluating the coordinates              ...  done
Calculating the B-matrix                .... done
Calculating the G-matrix                .... done
Diagonalizing the G-matrix              .... done
Imposing constraints:
 Iter   0:  RMS(Cart)=    0.0000000000 RMS(Int)=    0.0000000000
CONVERGED
The first mode is                       ....    4
The number of degrees of freedom        ....    9
Storing new coordinates                 .... done

    -----------------------------------------------------------------
                    Redundant Internal Coordinates


    -----------------------------------------------------------------
         Definition                    Initial Value    Approx d2E/dq
    -----------------------------------------------------------------
      1. B(H   1,C   0)                  1.0809         0.372366   
      2. B(H   2,C   0)                  1.0809         0.372366   
      3. B(H   3,C   0)                  1.0809         0.372366   
      4. B(F   4,H   3)                  4.9564         0.000000   
      5. B(F   4,H   1)                  4.9564         0.000000   
      6. B(F   4,C   0)                  4.5000         0.000006 C 
      7. B(F   4,H   2)                  4.9564         0.000000   
      8. A(H   2,C   0,H   3)          110.0548         0.293923   
      9. A(H   1,C   0,F   4)          108.8812         0.107984   
     10. A(H   2,C   0,F   4)          108.8812         0.107984   
     11. A(H   3,C   0,F   4)          108.8812         0.107984   
     12. A(H   1,C   0,H   2)          110.0548         0.293923   
     13. A(H   1,C   0,H   3)          110.0548         0.293923   
    -----------------------------------------------------------------

Number of atoms                         .... 5
Number of degrees of freedom            .... 13

         *************************************************************
         *                GEOMETRY OPTIMIZATION CYCLE   1            *
         *************************************************************
---------------------------------
CARTESIAN COORDINATES (ANGSTROEM)
---------------------------------
  C     -1.923963    1.371455   -0.158140
  H     -1.206352    2.177670   -0.100184
  H     -2.630103    1.444466    0.656932
  H     -2.445203    1.406501   -1.104389
  F      0.262132   -2.549309    0.155865

----------------------------
CARTESIAN COORDINATES (A.U.)
----------------------------
  NO LB      ZA    FRAG     MASS         X           Y           Z
   0 C     6.0000    0    12.011   -3.635763    2.591675   -0.298841
   1 H     1.0000    0     1.008   -2.279675    4.115200   -0.189321
   2 H     1.0000    0     1.008   -4.970175    2.729646    1.241421
   3 H     1.0000    0     1.008   -4.620764    2.657902   -2.086993
   4 F     9.0000    0    18.998    0.495358   -4.817495    0.294541

--------------------------------
INTERNAL COORDINATES (ANGSTROEM)
--------------------------------
 C      0   0   0     0.000000000000     0.00000000     0.00000000
 H      1   0   0     1.080882352794     0.00000000     0.00000000
 H      1   2   0     1.080882348479   110.05475732     0.00000000
 H      1   2   3     1.080882348314   110.05475684   121.45845560
 F      1   2   3     4.499999999479   108.88118576   240.72922825

---------------------------
INTERNAL COORDINATES (A.U.)
---------------------------
 C      0   0   0     0.000000000000     0.00000000     0.00000000
 H      1   0   0     2.042571629769     0.00000000     0.00000000
 H      1   2   0     2.042571621614   110.05475732     0.00000000
 H      1   2   3     2.042571621304   110.05475684   121.45845560
 F      1   2   3     8.503767601660   108.88118576   240.72922825

---------------------
BASIS SET INFORMATION
---------------------
There are 3 groups of distinct atoms

 Group   1 Type C   : 19s6p3d2f contracted to 5s4p3d2f pattern {88111/3111/111/11}
 Group   2 Type H   : 6s3p2d contracted to 4s3p2d pattern {3111/111/11}
 Group   3 Type F   : 19s6p3d2f contracted to 5s4p3d2f pattern {88111/3111/111/11}

Atom   0C    basis set group =>   1
Atom   1H    basis set group =>   2
Atom   2H    basis set group =>   2
Atom   3H    basis set group =>   2
Atom   4F    basis set group =>   3
------------------------------------------------------------------------------
                           ORCA GTO INTEGRAL CALCULATION
------------------------------------------------------------------------------

                         BASIS SET STATISTICS AND STARTUP INFO

 # of primitive gaussian shells          ...   93
 # of primitive gaussian functions       ...  207
 # of contracted shells                  ...   55
 # of contracted basis functions         ...  161
 Highest angular momentum                ...    3
 Maximum contraction depth               ...    8
 Integral package used                   ... LIBINT
 Integral threshhold            Thresh   ...  2.500e-11
 Primitive cut-off              TCut     ...  2.500e-12


------------------------------ INTEGRAL EVALUATION ----------------------------


 * One electron integrals 
 Pre-screening matrix                    ... done
 Shell pair data                         ... done (   0.001 sec)

-------------------------------------------------------------------------------
                                 ORCA SCF
-------------------------------------------------------------------------------

------------
SCF SETTINGS
------------
Hamiltonian:
 Ab initio Hamiltonian  Method          .... Hartree-Fock(GTOs)


General Settings:
 Integral files         IntName         .... orca
 Hartree-Fock type      HFTyp           .... UHF
 Total Charge           Charge          ....    0
 Multiplicity           Mult            ....    1
 Number of Electrons    NEL             ....   18
 Basis Dimension        Dim             ....  161
 Nuclear Repulsion      ENuc            ....     18.9414140925 Eh

Convergence Acceleration:
 DIIS                   CNVDIIS         .... on
   Start iteration      DIISMaxIt       ....     0
   Startup error        DIISStart       ....  0.200000
   # of expansion vecs  DIISMaxEq       ....     5
   Bias factor          DIISBfac        ....   1.050
   Max. coefficient     DIISMaxC        ....  10.000
 Newton-Raphson         CNVNR           .... off
 SOSCF                  CNVSOSCF        .... off
 Level Shifting         CNVShift        .... on
   Level shift para.    LevelShift      ....    0.2500
   Turn off err/grad.   ShiftErr        ....    0.0000
 Zerner damping         CNVZerner       .... off
 Static damping         CNVDamp         .... on
   Fraction old density DampFac         ....    0.9200
   Max. Damping (<1)    DampMax         ....    0.9800
   Min. Damping (>=0)   DampMin         ....    0.0000
   Turn off err/grad.   DampErr         ....    0.0030
 Fernandez-Rico         CNVRico         .... off

SCF Procedure:
 Maximum # iterations   MaxIter         ....  1800
 SCF integral mode      SCFMode         .... Direct
   Integral package                     .... LIBINT
 Reset frequency        DirectResetFreq ....    20
 Integral Threshold     Thresh          ....  2.500e-11 Eh
 Primitive CutOff       TCut            ....  2.500e-12 Eh

Convergence Tolerance:
 Convergence Check Mode ConvCheckMode   .... Total+1el-Energy
 Convergence forced     ConvForced      .... 0
 Energy Change          TolE            ....  1.000e-08 Eh
 1-El. energy change                    ....  1.000e-05 Eh
 DIIS Error             TolErr          ....  5.000e-07


Diagonalization of the overlap matrix:
Smallest eigenvalue                        ... 1.250e-04
Time for diagonalization                   ...    0.097 sec
Threshold for overlap eigenvalues          ... 1.000e-08
Number of eigenvalues below threshold      ... 0
Time for construction of square roots      ...    0.002 sec
Total time needed                          ...    0.099 sec

-------------------
DFT GRID GENERATION
-------------------

General Integration Accuracy     IntAcc      ...  4.340
Radial Grid Type                 RadialGrid  ... Gauss-Chebyshev
Angular Grid (max. acc.)         AngularGrid ... Lebedev-110
Angular grid pruning method      GridPruning ... 3 (G Style)
Weight generation scheme         WeightScheme... Becke
Basis function cutoff            BFCut       ...    1.0000e-11
Integration weight cutoff        WCut        ...    1.0000e-14
Grids for H and He will be reduced by one unit

# of grid points (after initial pruning)     ...   5778 (   0.0 sec)
# of grid points (after weights+screening)   ...   5683 (   0.0 sec)
nearest neighbour list constructed           ...    0.0 sec
Grid point re-assignment to atoms done       ...    0.0 sec
Grid point division into batches done        ...    0.0 sec
Reduced shell lists constructed in    0.0 sec

Total number of grid points                  ...     5683
Total number of batches                      ...       92
Average number of points per batch           ...       61
Average number of grid points per atom       ...     1137
Average number of shells per batch           ...    42.19 (76.72%)
Average number of basis functions per batch  ...   119.16 (74.01%)
Average number of large shells per batch     ...    37.03 (87.77%)
Average number of large basis fcns per batch ...   103.12 (86.54%)
Maximum spatial batch extension              ...  21.59, 23.60, 21.59 au
Average spatial batch extension              ...   5.63,  5.26,  5.02 au

Time for grid setup =    0.040 sec

------------------------------
INITIAL GUESS: MODEL POTENTIAL
------------------------------
Loading Hartree-Fock densities                     ... done
Calculating cut-offs                               ... done
Setting up the integral package                    ... done
Initializing the effective Hamiltonian             ... done
Starting the Coulomb interaction                   ... done (   0.0 sec)
Reading the grid                                   ... done
Mapping shells                                     ... done
Starting the XC term evaluation                    ... done (   0.0 sec)
Transforming the Hamiltonian                       ... done (   0.0 sec)
Diagonalizing the Hamiltonian                      ... done (   0.0 sec)
Back transforming the eigenvectors                 ... done (   0.0 sec)
Now organizing SCF variables                       ... done
                      ------------------
                      INITIAL GUESS DONE (   0.2 sec)
                      ------------------
--------------
SCF ITERATIONS
--------------
ITER       Energy         Delta-E        Max-DP      RMS-DP      [F,P]     Damp
               ***  Starting incremental Fock matrix formation  ***
  0   -138.6422335067   0.000000000000 0.00388247  0.00011258  0.4308944 0.9200
  1   -138.6573352171  -0.015101710418 0.00392135  0.00011805  0.3793620 0.9200
                               ***Turning on DIIS***
  2   -138.6705752654  -0.013240048340 0.00364027  0.00011177  0.3267094 0.9200
  3   -138.9526900894  -0.282114824027 0.00307391  0.00009684  0.2792218 0.9200
  4   -139.2350647337  -0.282374644283 0.00284451  0.00008106  0.2424082 0.9200
  5   -139.3277900987  -0.092725364933 0.00262995  0.00007028  0.2162684 0.9200
  6   -139.3384921130  -0.010702014297 0.00243037  0.00006291  0.1963893 0.9200
  7   -139.2550659663   0.083426146692 0.00224468  0.00005839  0.1799946 0.9200
  8   -139.1861537380   0.068912228239 0.00207143  0.00005478  0.1646123 0.9200
  9   -139.1409745579   0.045179180180 0.00190890  0.00005119  0.1499648 0.9200
 10   -139.1104471735   0.030527384390 0.00175755  0.00004750  0.1363298 0.9200
 11   -139.0848453261   0.025601847315 0.00161779  0.00004392  0.1239072 0.9200
 12   -139.0596394965   0.025205829637 0.00148940  0.00004060  0.1126894 0.9200
 13   -139.0351377976   0.024501698859 0.00137150  0.00003758  0.1025464 0.9200
 14   -139.0122729275   0.022864870132 0.00126308  0.00003482  0.0933422 0.9200
 15   -138.9914760147   0.020796912807 0.00116324  0.00003229  0.0849717 0.9200
 16   -138.9726757690   0.018800245751 0.00107127  0.00002996  0.0773559 0.9200
 17   -138.9556011072   0.017074661766 0.00098654  0.00002780  0.0704297 0.9200
 18   -138.9400148852   0.015586221978 0.00090852  0.00002581  0.0641333 0.9200
 19   -138.9257594735   0.014255411677 0.00083668  0.00002396  0.0584098 0.9200
               *** Restarting incremental Fock matrix formation ***
                                   *** Resetting DIIS ***
 20   -138.7535297317   0.172229741870 0.00075434  0.00002375  0.0532064 0.9200
 21   -138.7947490247  -0.041219292989 0.00069731  0.00002154  0.0458651 0.9200
 22   -138.8443320641  -0.049583039482 0.00064585  0.00001882  0.0398807 0.9200
 23   -138.8643579719  -0.020025907717 0.00059811  0.00001680  0.0356922 0.9200
 24   -138.8692963845  -0.004938412629 0.00055380  0.00001540  0.0328057 0.9200
 25   -138.8556960572   0.013600327290 0.00051238  0.00001452  0.0302390 0.9200
 26   -138.8433444739   0.012351583253 0.00047330  0.00001386  0.0278846 0.9200
 27   -138.8359230564   0.007421417559 0.00043622  0.00001319  0.0257336 0.9200
 28   -138.8318078313   0.004115225106 0.00040154  0.00001245  0.0237568 0.9200
 29   -138.8284380998   0.003369731503 0.00036955  0.00001170  0.0219295 0.9200
 30   -138.8246859419   0.003752157916 0.00034600  0.00001099  0.0202378 0.9200
 31   -138.8207377958   0.003948146094 0.00032878  0.00001034  0.0186737 0.9200
 32   -138.8169620609   0.003775734847 0.00031271  0.00000974  0.0172297 0.9200
 33   -138.8135521693   0.003409891620 0.00029737  0.00000919  0.0158972 0.9200
 34   -138.8105083720   0.003043797316 0.00028258  0.00000867  0.0146677 0.9200
 35   -138.8077501992   0.002758172823 0.00026831  0.00000819  0.0135329 0.9200
 36   -138.8052124336   0.002537765600 0.00025461  0.00000773  0.0124852 0.9200
 37   -138.8028654770   0.002346956566 0.00024154  0.00000731  0.0115181 0.9200
 38   -138.8006999923   0.002165484668 0.00022911  0.00000691  0.0106254 0.9200
 39   -138.7987096858   0.001990306557 0.00021730  0.00000654  0.0098014 0.9200
               *** Restarting incremental Fock matrix formation ***
                                   *** Resetting DIIS ***
 40   -138.7697487954   0.028960890323 0.00019112  0.00000560  0.0090409 0.9200
 41   -138.7752393783  -0.005490582879 0.00016944  0.00000501  0.0084472 0.9200
 42   -138.7830217273  -0.007782348951 0.00015216  0.00000456  0.0078676 0.9200
 43   -138.7874508887  -0.004429161453 0.00014147  0.00000431  0.0072877 0.9200
 44   -138.7894065374  -0.001955648713 0.00013744  0.00000420  0.0067237 0.9200
 45   -138.7872481457   0.002158391790 0.00013673  0.00000416  0.0061888 0.9200
 46   -138.7852933966   0.001954749083 0.00013672  0.00000415  0.0057003 0.9200
 47   -138.7845594723   0.000733924269 0.00013530  0.00000410  0.0052561 0.9200
 48   -138.7845106952   0.000048777085 0.00013209  0.00000401  0.0048481 0.9200
 49   -138.7844264116   0.000084283588 0.00012772  0.00000389  0.0044704 0.9200
 50   -138.7840554756   0.000370935975 0.00012306  0.00000376  0.0041202 0.9200
 51   -138.7835236755   0.000531800112 0.00011853  0.00000364  0.0037967 0.9200
 52   -138.7829862135   0.000537462078 0.00011414  0.00000352  0.0034986 0.9200
 53   -138.7825172647   0.000468948800 0.00010978  0.00000340  0.0032240 0.9200
 54   -138.7821108714   0.000406393228 0.00131758  0.00004100  0.0029710 0.0000
 55   -138.7758179435   0.006292927944 0.00026526  0.00000769  0.0011482 0.0000
 56   -138.7763609868  -0.000543043334 0.00018250  0.00000563  0.0007688 0.0000
 57   -138.7758643622   0.000496624581 0.00019691  0.00000599  0.0004813 0.0000
 58   -138.7763128371  -0.000448474836 0.00012876  0.00000442  0.0004656 0.0000
 59   -138.7759943423   0.000318494729 0.00008986  0.00000330  0.0003710 0.0000
               *** Restarting incremental Fock matrix formation ***
                                   *** Resetting DIIS ***
 60   -138.7738196983   0.002174644017 0.00006394  0.00000197  0.0003334 0.0000
 61   -138.7729916235   0.000828074812 0.00003815  0.00000102  0.0003614 0.0000
 62   -138.7734696985  -0.000478074930 0.00002625  0.00000089  0.0001407 0.0000
 63   -138.7740218247  -0.000552126206 0.00003111  0.00000113  0.0001005 0.0000
 64   -138.7743568768  -0.000335052161 0.00002307  0.00000082  0.0000903 0.0000
 65   -138.7740375895   0.000319287309 0.00001857  0.00000043  0.0000789 0.0000
 66   -138.7740357151   0.000001874401 0.00002515  0.00000080  0.0000516 0.0000
 67   -138.7742041363  -0.000168421145 0.00001001  0.00000038  0.0000756 0.0000
 68   -138.7741070795   0.000097056717 0.00000672  0.00000024  0.0000629 0.0000
 69   -138.7740108309   0.000096248663 0.00000436  0.00000016  0.0000456 0.0000
 70   -138.7739487477   0.000062083170 0.00000299  0.00000010  0.0000310 0.0000
 71   -138.7739180712   0.000030676467 0.00000256  0.00000008  0.0000220 0.0000
 72   -138.7739045696   0.000013501638 0.00000225  0.00000007  0.0000194 0.0000
 73   -138.7738891359   0.000015433713 0.00000192  0.00000005  0.0000174 0.0000
 74   -138.7738726243   0.000016511574 0.00000194  0.00000005  0.0000139 0.0000
 75   -138.7738581973   0.000014427059 0.00000195  0.00000005  0.0000110 0.0000
 76   -138.7738428176   0.000015379687 0.00000160  0.00000004  0.0000080 0.0000
 77   -138.7738296304   0.000013187120 0.00000108  0.00000004  0.0000048 0.0000
 78   -138.7738208498   0.000008780687 0.00000064  0.00000002  0.0000024 0.0000
 79   -138.7738186197   0.000002230011 0.00000039  0.00000001  0.0000017 0.0000
               *** Restarting incremental Fock matrix formation ***
                                   *** Resetting DIIS ***
 80   -138.7738205653  -0.000001945603 0.00000088  0.00000001  0.0000014 0.0000
 81   -138.7738212914  -0.000000726003 0.00000022  0.00000001  0.0000010 0.0000
                            ***DIIS convergence achieved***

               *****************************************************
               *                     SUCCESS                       *
               *           SCF CONVERGED AFTER  82 CYCLES          *
               *****************************************************


----------------
TOTAL SCF ENERGY
----------------

Total Energy       :         -138.77382034 Eh           -3776.22763 eV

Components:
Nuclear Repulsion  :           18.94141409 Eh             515.42208 eV
Electronic Energy  :         -157.71523443 Eh           -4291.64971 eV
One Electron Energy:         -230.30261805 Eh           -6266.85284 eV
Two Electron Energy:           72.58738362 Eh            1975.20313 eV

Virial components:
Potential Energy   :         -277.37786474 Eh           -7547.83542 eV
Kinetic Energy     :          138.60404440 Eh            3771.60779 eV
Virial Ratio       :            2.00122490


---------------
SCF CONVERGENCE
---------------

  Last Energy change         ...    9.5240e-07  Tolerance :   1.0000e-08
  Last MAX-Density change    ...    2.3961e-07  Tolerance :   1.0000e-07
  Last RMS-Density change    ...    7.3337e-09  Tolerance :   5.0000e-09
  Last DIIS Error            ...    9.4646e-07  Tolerance :   5.0000e-07

             **** THE GBW FILE WAS UPDATED (orca.gbw) ****
             **** DENSITY FILE WAS UPDATED (orca.scfp) ****
             **** ENERGY FILE WAS UPDATED (orca.en.tmp) ****
----------------------
UHF SPIN CONTAMINATION
----------------------

Expectation value of <S**2>     :    -0.000000
Ideal value S*(S+1) for S=0.0   :     0.000000
Deviation                       :    -0.000000

             **** THE GBW FILE WAS UPDATED (orca.gbw) ****
             **** DENSITY FILE WAS UPDATED (orca.scfp) ****
----------------
ORBITAL ENERGIES
----------------
                 SPIN UP ORBITALS
  NO   OCC          E(Eh)            E(eV) 
   0   1.0000     -26.030241      -708.3189 
   1   1.0000     -11.523176      -313.5616 
   2   1.0000      -1.258827       -34.2544 
   3   1.0000      -1.132280       -30.8109 
   4   1.0000      -0.781588       -21.2681 
   5   1.0000      -0.781588       -21.2681 
   6   1.0000      -0.370018       -10.0687 
   7   1.0000      -0.370018       -10.0687 
   8   1.0000      -0.316189        -8.6039 
   9   0.0000      -0.175446        -4.7741 
  10   0.0000      -0.020896        -0.5686 
  11   0.0000       0.011449         0.3115 
  12   0.0000       0.011449         0.3115 
  13   0.0000       0.067907         1.8478 
  14   0.0000       0.081870         2.2278 
  15   0.0000       0.083302         2.2668 
  16   0.0000       0.083302         2.2668 
  17   0.0000       0.126842         3.4515 
  18   0.0000       0.126842         3.4515 
  19   0.0000       0.157836         4.2949 
  20   0.0000       0.157836         4.2949 
  21   0.0000       0.179395         4.8816 
  22   0.0000       0.257021         6.9939 
  23   0.0000       0.262764         7.1502 
  24   0.0000       0.262764         7.1502 
  25   0.0000       0.276580         7.5261 
  26   0.0000       0.294329         8.0091 
  27   0.0000       0.298721         8.1286 
  28   0.0000       0.298721         8.1286 
  29   0.0000       0.317362         8.6359 
  30   0.0000       0.321025         8.7355 
  31   0.0000       0.321025         8.7355 
  32   0.0000       0.348818         9.4918 
  33   0.0000       0.353135         9.6093 
  34   0.0000       0.353135         9.6093 
  35   0.0000       0.387555        10.5459 
  36   0.0000       0.387555        10.5459 
  37   0.0000       0.405285        11.0284 
  38   0.0000       0.531465        14.4619 
  39   0.0000       0.531465        14.4619 
  40   0.0000       0.559387        15.2217 
  41   0.0000       0.624788        17.0013 
  42   0.0000       0.707874        19.2622 
  43   0.0000       0.707874        19.2622 
  44   0.0000       0.730730        19.8842 
  45   0.0000       0.730730        19.8842 
  46   0.0000       0.767980        20.8978 
  47   0.0000       0.790343        21.5063 
  48   0.0000       0.810397        22.0520 
  49   0.0000       0.837786        22.7973 
  50   0.0000       0.837786        22.7973 
  51   0.0000       0.881343        23.9826 
  52   0.0000       0.881343        23.9826 
  53   0.0000       0.891937        24.2709 
  54   0.0000       0.954668        25.9778 
  55   0.0000       0.961288        26.1580 
  56   0.0000       0.961288        26.1580 
  57   0.0000       0.987025        26.8583 
  58   0.0000       0.987025        26.8583 
  59   0.0000       0.995099        27.0780 
  60   0.0000       1.043925        28.4066 
  61   0.0000       1.043925        28.4066 
  62   0.0000       1.075820        29.2746 
  63   0.0000       1.075821        29.2746 
  64   0.0000       1.089353        29.6428 
  65   0.0000       1.089353        29.6428 
  66   0.0000       1.116159        30.3722 
  67   0.0000       1.186000        32.2727 
  68   0.0000       1.289834        35.0982 
  69   0.0000       1.289834        35.0982 
  70   0.0000       1.364231        37.1226 
  71   0.0000       1.364231        37.1226 
  72   0.0000       1.372067        37.3358 
  73   0.0000       1.372067        37.3358 
  74   0.0000       1.376702        37.4620 
  75   0.0000       1.396759        38.0077 
  76   0.0000       1.468305        39.9546 
  77   0.0000       1.468305        39.9546 
  78   0.0000       1.470122        40.0040 
  79   0.0000       1.527808        41.5738 
  80   0.0000       1.695215        46.1291 
  81   0.0000       1.695215        46.1291 
  82   0.0000       1.777138        48.3584 
  83   0.0000       1.779451        48.4213 
  84   0.0000       1.845600        50.2213 
  85   0.0000       1.845601        50.2213 
  86   0.0000       1.966153        53.5017 
  87   0.0000       2.012736        54.7693 
  88   0.0000       2.012737        54.7693 
  89   0.0000       2.109626        57.4059 
  90   0.0000       2.693946        73.3060 
  91   0.0000       2.821443        76.7754 
  92   0.0000       2.821443        76.7754 
  93   0.0000       2.873860        78.2017 
  94   0.0000       3.108909        84.5977 
  95   0.0000       3.108909        84.5977 
  96   0.0000       3.112050        84.6832 
  97   0.0000       3.112050        84.6832 
  98   0.0000       3.133771        85.2743 
  99   0.0000       3.158722        85.9532 
 100   0.0000       3.158722        85.9532 
 101   0.0000       3.160136        85.9917 
 102   0.0000       3.160136        85.9917 
 103   0.0000       3.164749        86.1172 
 104   0.0000       3.164749        86.1172 
 105   0.0000       3.168443        86.2177 
 106   0.0000       3.187700        86.7417 
 107   0.0000       3.187700        86.7417 
 108   0.0000       3.223492        87.7157 
 109   0.0000       3.338230        90.8378 
 110   0.0000       3.338230        90.8379 
 111   0.0000       3.370724        91.7221 
 112   0.0000       3.401733        92.5659 
 113   0.0000       3.401733        92.5659 
 114   0.0000       3.497353        95.1678 
 115   0.0000       3.596070        97.8540 
 116   0.0000       3.596070        97.8540 
 117   0.0000       3.787507       103.0633 
 118   0.0000       3.787507       103.0633 
 119   0.0000       3.821192       103.9799 
 120   0.0000       3.862849       105.1135 
 121   0.0000       3.903294       106.2140 
 122   0.0000       3.903294       106.2140 
 123   0.0000       4.201899       114.3395 
 124   0.0000       4.201899       114.3395 
 125   0.0000       4.208993       114.5325 
 126   0.0000       4.478672       121.8709 
 127   0.0000       4.532756       123.3426 
 128   0.0000       4.532756       123.3426 
 129   0.0000       4.663363       126.8966 
 130   0.0000       4.663363       126.8966 
 131   0.0000       4.669578       127.0657 
 132   0.0000       4.891407       133.1019 
 133   0.0000       4.940628       134.4413 
 134   0.0000       4.940628       134.4413 
 135   0.0000       5.209155       141.7483 
 136   0.0000       5.273769       143.5065 
 137   0.0000       5.273769       143.5065 
 138   0.0000       5.463752       148.6762 
 139   0.0000       5.493935       149.4976 
 140   0.0000       5.493935       149.4976 
 141   0.0000       5.511078       149.9641 
 142   0.0000       5.613681       152.7560 
 143   0.0000       5.853187       159.2733 
 144   0.0000       5.853187       159.2733 
 145   0.0000       6.316690       171.8859 
 146   0.0000       6.316690       171.8859 
 147   0.0000       9.077119       247.0010 
 148   0.0000       9.077192       247.0030 
 149   0.0000       9.077192       247.0030 
 150   0.0000       9.081609       247.1232 
 151   0.0000       9.081609       247.1232 
 152   0.0000       9.089827       247.3468 
 153   0.0000       9.089827       247.3468 
 154   0.0000       9.557254       260.0661 
 155   0.0000       9.557254       260.0661 
 156   0.0000       9.560573       260.1564 
 157   0.0000       9.560573       260.1564 
 158   0.0000       9.568809       260.3805 
 159   0.0000      10.963301       298.3266 
 160   0.0000      16.300267       443.5528 

                 SPIN DOWN ORBITALS
  NO   OCC          E(Eh)            E(eV) 
   0   1.0000     -26.030241      -708.3189 
   1   1.0000     -11.523176      -313.5616 
   2   1.0000      -1.258827       -34.2544 
   3   1.0000      -1.132280       -30.8109 
   4   1.0000      -0.781588       -21.2681 
   5   1.0000      -0.781588       -21.2681 
   6   1.0000      -0.370018       -10.0687 
   7   1.0000      -0.370018       -10.0687 
   8   1.0000      -0.316189        -8.6039 
   9   0.0000      -0.175446        -4.7741 
  10   0.0000      -0.020896        -0.5686 
  11   0.0000       0.011449         0.3115 
  12   0.0000       0.011449         0.3115 
  13   0.0000       0.067907         1.8478 
  14   0.0000       0.081870         2.2278 
  15   0.0000       0.083302         2.2668 
  16   0.0000       0.083302         2.2668 
  17   0.0000       0.126842         3.4515 
  18   0.0000       0.126842         3.4515 
  19   0.0000       0.157836         4.2949 
  20   0.0000       0.157836         4.2949 
  21   0.0000       0.179395         4.8816 
  22   0.0000       0.257021         6.9939 
  23   0.0000       0.262764         7.1502 
  24   0.0000       0.262764         7.1502 
  25   0.0000       0.276580         7.5261 
  26   0.0000       0.294329         8.0091 
  27   0.0000       0.298721         8.1286 
  28   0.0000       0.298721         8.1286 
  29   0.0000       0.317362         8.6359 
  30   0.0000       0.321025         8.7355 
  31   0.0000       0.321025         8.7355 
  32   0.0000       0.348818         9.4918 
  33   0.0000       0.353135         9.6093 
  34   0.0000       0.353135         9.6093 
  35   0.0000       0.387555        10.5459 
  36   0.0000       0.387555        10.5459 
  37   0.0000       0.405285        11.0284 
  38   0.0000       0.531465        14.4619 
  39   0.0000       0.531465        14.4619 
  40   0.0000       0.559387        15.2217 
  41   0.0000       0.624788        17.0013 
  42   0.0000       0.707874        19.2622 
  43   0.0000       0.707874        19.2622 
  44   0.0000       0.730730        19.8842 
  45   0.0000       0.730730        19.8842 
  46   0.0000       0.767980        20.8978 
  47   0.0000       0.790343        21.5063 
  48   0.0000       0.810397        22.0520 
  49   0.0000       0.837786        22.7973 
  50   0.0000       0.837786        22.7973 
  51   0.0000       0.881343        23.9826 
  52   0.0000       0.881343        23.9826 
  53   0.0000       0.891937        24.2709 
  54   0.0000       0.954668        25.9778 
  55   0.0000       0.961288        26.1580 
  56   0.0000       0.961288        26.1580 
  57   0.0000       0.987025        26.8583 
  58   0.0000       0.987025        26.8583 
  59   0.0000       0.995099        27.0780 
  60   0.0000       1.043925        28.4066 
  61   0.0000       1.043925        28.4066 
  62   0.0000       1.075820        29.2746 
  63   0.0000       1.075821        29.2746 
  64   0.0000       1.089353        29.6428 
  65   0.0000       1.089353        29.6428 
  66   0.0000       1.116159        30.3722 
  67   0.0000       1.186000        32.2727 
  68   0.0000       1.289834        35.0982 
  69   0.0000       1.289834        35.0982 
  70   0.0000       1.364231        37.1226 
  71   0.0000       1.364231        37.1226 
  72   0.0000       1.372067        37.3358 
  73   0.0000       1.372067        37.3358 
  74   0.0000       1.376702        37.4620 
  75   0.0000       1.396759        38.0077 
  76   0.0000       1.468305        39.9546 
  77   0.0000       1.468305        39.9546 
  78   0.0000       1.470122        40.0040 
  79   0.0000       1.527808        41.5738 
  80   0.0000       1.695215        46.1291 
  81   0.0000       1.695215        46.1291 
  82   0.0000       1.777138        48.3584 
  83   0.0000       1.779451        48.4213 
  84   0.0000       1.845600        50.2213 
  85   0.0000       1.845601        50.2213 
  86   0.0000       1.966153        53.5017 
  87   0.0000       2.012736        54.7693 
  88   0.0000       2.012737        54.7693 
  89   0.0000       2.109626        57.4059 
  90   0.0000       2.693946        73.3060 
  91   0.0000       2.821443        76.7754 
  92   0.0000       2.821443        76.7754 
  93   0.0000       2.873860        78.2017 
  94   0.0000       3.108909        84.5977 
  95   0.0000       3.108909        84.5977 
  96   0.0000       3.112050        84.6832 
  97   0.0000       3.112050        84.6832 
  98   0.0000       3.133771        85.2743 
  99   0.0000       3.158722        85.9532 
 100   0.0000       3.158722        85.9532 
 101   0.0000       3.160136        85.9917 
 102   0.0000       3.160136        85.9917 
 103   0.0000       3.164749        86.1172 
 104   0.0000       3.164749        86.1172 
 105   0.0000       3.168443        86.2177 
 106   0.0000       3.187700        86.7417 
 107   0.0000       3.187700        86.7417 
 108   0.0000       3.223492        87.7157 
 109   0.0000       3.338230        90.8378 
 110   0.0000       3.338230        90.8379 
 111   0.0000       3.370724        91.7221 
 112   0.0000       3.401733        92.5659 
 113   0.0000       3.401733        92.5659 
 114   0.0000       3.497353        95.1678 
 115   0.0000       3.596070        97.8540 
 116   0.0000       3.596070        97.8540 
 117   0.0000       3.787507       103.0633 
 118   0.0000       3.787507       103.0633 
 119   0.0000       3.821192       103.9799 
 120   0.0000       3.862849       105.1135 
 121   0.0000       3.903294       106.2140 
 122   0.0000       3.903294       106.2140 
 123   0.0000       4.201899       114.3395 
 124   0.0000       4.201899       114.3395 
 125   0.0000       4.208993       114.5325 
 126   0.0000       4.478672       121.8709 
 127   0.0000       4.532756       123.3426 
 128   0.0000       4.532756       123.3426 
 129   0.0000       4.663363       126.8966 
 130   0.0000       4.663363       126.8966 
 131   0.0000       4.669578       127.0657 
 132   0.0000       4.891407       133.1019 
 133   0.0000       4.940628       134.4413 
 134   0.0000       4.940628       134.4413 
 135   0.0000       5.209155       141.7483 
 136   0.0000       5.273769       143.5065 
 137   0.0000       5.273769       143.5065 
 138   0.0000       5.463752       148.6762 
 139   0.0000       5.493935       149.4976 
 140   0.0000       5.493935       149.4976 
 141   0.0000       5.511078       149.9641 
 142   0.0000       5.613681       152.7560 
 143   0.0000       5.853187       159.2733 
 144   0.0000       5.853187       159.2733 
 145   0.0000       6.316690       171.8859 
 146   0.0000       6.316690       171.8859 
 147   0.0000       9.077119       247.0010 
 148   0.0000       9.077192       247.0030 
 149   0.0000       9.077192       247.0030 
 150   0.0000       9.081609       247.1232 
 151   0.0000       9.081609       247.1232 
 152   0.0000       9.089827       247.3468 
 153   0.0000       9.089827       247.3468 
 154   0.0000       9.557254       260.0661 
 155   0.0000       9.557254       260.0661 
 156   0.0000       9.560573       260.1564 
 157   0.0000       9.560573       260.1564 
 158   0.0000       9.568809       260.3805 
 159   0.0000      10.963301       298.3266 
 160   0.0000      16.300267       443.5528 

                    ********************************
                    * MULLIKEN POPULATION ANALYSIS *
                    ********************************

--------------------------------------------
MULLIKEN ATOMIC CHARGES AND SPIN POPULATIONS
--------------------------------------------
   0 C :   -0.637423    0.000000
   1 H :    0.485809    0.000000
   2 H :    0.485809    0.000000
   3 H :    0.485808    0.000000
   4 F :   -0.820004    0.000000
Sum of atomic charges         :   -0.0000000
Sum of atomic spin populations:    0.0000000

-----------------------------------------------------
MULLIKEN REDUCED ORBITAL CHARGES AND SPIN POPULATIONS
-----------------------------------------------------
CHARGE
  0 C s       :     3.543690  s :     3.543690
      pz      :     1.392209  p :     2.982852
      px      :     1.112200
      py      :     0.478443
      dz2     :     0.026538  d :     0.104588
      dxz     :     0.044749
      dyz     :     0.001052
      dx2y2   :     0.006905
      dxy     :     0.025344
      f0      :     0.000216  f :     0.006293
      f+1     :     0.002485
      f-1     :     0.000707
      f+2     :     0.001508
      f-2     :     0.000138
      f+3     :     0.000981
      f-3     :     0.000258
  1 H s       :     0.473364  s :     0.473364
      pz      :     0.007984  p :     0.036865
      px      :     0.018768
      py      :     0.010113
      dz2     :     0.000054  d :     0.003961
      dxz     :     0.001643
      dyz     :     0.001361
      dx2y2   :     0.000849
      dxy     :     0.000054
  2 H s       :     0.473364  s :     0.473364
      pz      :     0.018314  p :     0.036866
      px      :     0.011773
      py      :     0.006779
      dz2     :     0.002017  d :     0.003962
      dxz     :     0.000204
      dyz     :     0.000875
      dx2y2   :     0.000550
      dxy     :     0.000317
  3 H s       :     0.473364  s :     0.473364
      pz      :     0.020544  p :     0.036866
      px      :     0.009280
      py      :     0.007041
      dz2     :     0.001572  d :     0.003962
      dxz     :     0.000836
      dyz     :     0.001064
      dx2y2   :     0.000359
      dxy     :     0.000131
  4 F s       :     4.001151  s :     4.001151
      pz      :     1.998841  p :     5.818590
      px      :     1.957129
      py      :     1.862619
      dz2     :     0.000045  d :     0.000253
      dxz     :     0.000009
      dyz     :     0.000028
      dx2y2   :     0.000063
      dxy     :     0.000109
      f0      :     0.000001  f :     0.000009
      f+1     :     0.000001
      f-1     :     0.000001
      f+2     :     0.000000
      f-2     :     0.000001
      f+3     :     0.000003
      f-3     :     0.000002

SPIN
  0 C s       :     0.000000  s :     0.000000
      pz      :     0.000000  p :     0.000000
      px      :     0.000000
      py      :     0.000000
      dz2     :     0.000000  d :     0.000000
      dxz     :     0.000000
      dyz     :     0.000000
      dx2y2   :     0.000000
      dxy     :     0.000000
      f0      :     0.000000  f :     0.000000
      f+1     :     0.000000
      f-1     :     0.000000
      f+2     :     0.000000
      f-2     :     0.000000
      f+3     :     0.000000
      f-3     :     0.000000
  1 H s       :     0.000000  s :     0.000000
      pz      :     0.000000  p :     0.000000
      px      :     0.000000
      py      :     0.000000
      dz2     :     0.000000  d :     0.000000
      dxz     :     0.000000
      dyz     :     0.000000
      dx2y2   :     0.000000
      dxy     :     0.000000
  2 H s       :     0.000000  s :     0.000000
      pz      :     0.000000  p :     0.000000
      px      :     0.000000
      py      :     0.000000
      dz2     :     0.000000  d :     0.000000
      dxz     :     0.000000
      dyz     :     0.000000
      dx2y2   :     0.000000
      dxy     :     0.000000
  3 H s       :     0.000000  s :     0.000000
      pz      :     0.000000  p :     0.000000
      px      :     0.000000
      py      :     0.000000
      dz2     :     0.000000  d :     0.000000
      dxz     :     0.000000
      dyz     :     0.000000
      dx2y2   :     0.000000
      dxy     :     0.000000
  4 F s       :     0.000000  s :     0.000000
      pz      :     0.000000  p :     0.000000
      px      :     0.000000
      py      :     0.000000
      dz2     :     0.000000  d :     0.000000
      dxz     :     0.000000
      dyz     :     0.000000
      dx2y2   :     0.000000
      dxy     :     0.000000
      f0      :     0.000000  f :     0.000000
      f+1     :     0.000000
      f-1     :     0.000000
      f+2     :     0.000000
      f-2     :     0.000000
      f+3     :     0.000000
      f-3     :     0.000000


                     *******************************
                     * LOEWDIN POPULATION ANALYSIS *
                     *******************************

-------------------------------------------
LOEWDIN ATOMIC CHARGES AND SPIN POPULATIONS
-------------------------------------------
   0 C :    1.255580    0.000000
   1 H :   -0.147497    0.000000
   2 H :   -0.147497    0.000000
   3 H :   -0.147497    0.000000
   4 F :   -0.813090    0.000000

----------------------------------------------------
LOEWDIN REDUCED ORBITAL CHARGES AND SPIN POPULATIONS
----------------------------------------------------
CHARGE
  0 C s       :     2.589832  s :     2.589832
      pz      :     0.914467  p :     1.958784
      px      :     0.730429
      py      :     0.313888
      dz2     :     0.048824  d :     0.165554
      dxz     :     0.071881
      dyz     :     0.000476
      dx2y2   :     0.006702
      dxy     :     0.037671
      f0      :     0.001243  f :     0.030249
      f+1     :     0.010832
      f-1     :     0.003485
      f+2     :     0.007574
      f-2     :     0.000839
      f+3     :     0.004392
      f-3     :     0.001884
  1 H s       :     0.661272  s :     0.661272
      pz      :     0.092870  p :     0.300572
      px      :     0.107429
      py      :     0.100273
      dz2     :     0.012918  d :     0.185652
      dxz     :     0.055840
      dyz     :     0.042388
      dx2y2   :     0.017904
      dxy     :     0.056602
  2 H s       :     0.661272  s :     0.661272
      pz      :     0.140817  p :     0.300572
      px      :     0.119700
      py      :     0.040055
      dz2     :     0.078287  d :     0.185652
      dxz     :     0.048494
      dyz     :     0.015305
      dx2y2   :     0.025592
      dxy     :     0.017975
  3 H s       :     0.661272  s :     0.661272
      pz      :     0.160332  p :     0.300572
      px      :     0.101134
      py      :     0.039107
      dz2     :     0.081848  d :     0.185652
      dxz     :     0.057847
      dyz     :     0.020649
      dx2y2   :     0.012772
      dxy     :     0.012536
  4 F s       :     3.998637  s :     3.998637
      pz      :     1.998744  p :     5.814222
      px      :     1.956076
      py      :     1.859401
      dz2     :     0.000038  d :     0.000223
      dxz     :     0.000009
      dyz     :     0.000028
      dx2y2   :     0.000057
      dxy     :     0.000092
      f0      :     0.000001  f :     0.000009
      f+1     :     0.000001
      f-1     :     0.000001
      f+2     :     0.000000
      f-2     :     0.000001
      f+3     :     0.000003
      f-3     :     0.000002

SPIN
  0 C s       :     0.000000  s :     0.000000
      pz      :     0.000000  p :     0.000000
      px      :     0.000000
      py      :     0.000000
      dz2     :     0.000000  d :     0.000000
      dxz     :     0.000000
      dyz     :     0.000000
      dx2y2   :     0.000000
      dxy     :     0.000000
      f0      :     0.000000  f :     0.000000
      f+1     :     0.000000
      f-1     :     0.000000
      f+2     :     0.000000
      f-2     :     0.000000
      f+3     :     0.000000
      f-3     :     0.000000
  1 H s       :     0.000000  s :     0.000000
      pz      :     0.000000  p :     0.000000
      px      :     0.000000
      py      :     0.000000
      dz2     :     0.000000  d :     0.000000
      dxz     :     0.000000
      dyz     :     0.000000
      dx2y2   :     0.000000
      dxy     :     0.000000
  2 H s       :     0.000000  s :     0.000000
      pz      :     0.000000  p :     0.000000
      px      :     0.000000
      py      :     0.000000
      dz2     :     0.000000  d :     0.000000
      dxz     :     0.000000
      dyz     :     0.000000
      dx2y2   :     0.000000
      dxy     :     0.000000
  3 H s       :     0.000000  s :     0.000000
      pz      :     0.000000  p :     0.000000
      px      :     0.000000
      py      :     0.000000
      dz2     :     0.000000  d :     0.000000
      dxz     :     0.000000
      dyz     :     0.000000
      dx2y2   :     0.000000
      dxy     :     0.000000
  4 F s       :     0.000000  s :     0.000000
      pz      :     0.000000  p :     0.000000
      px      :     0.000000
      py      :     0.000000
      dz2     :     0.000000  d :     0.000000
      dxz     :     0.000000
      dyz     :     0.000000
      dx2y2   :     0.000000
      dxy     :     0.000000
      f0      :     0.000000  f :     0.000000
      f+1     :     0.000000
      f-1     :     0.000000
      f+2     :     0.000000
      f-2     :     0.000000
      f+3     :     0.000000
      f-3     :     0.000000


                      *****************************
                      * MAYER POPULATION ANALYSIS *
                      *****************************

  NA   - Mulliken gross atomic population
  ZA   - Total nuclear charge
  QA   - Mulliken gross atomic charge
  VA   - Mayer's total valence
  BVA  - Mayer's bonded valence
  FA   - Mayer's free valence

  ATOM       NA         ZA         QA         VA         BVA        FA
  0 C      6.6374     6.0000    -0.6374     2.5550     2.5550    -0.0000
  1 H      0.5142     1.0000     0.4858     0.8313     0.8313    -0.0000
  2 H      0.5142     1.0000     0.4858     0.8313     0.8313    -0.0000
  3 H      0.5142     1.0000     0.4858     0.8313     0.8313    -0.0000
  4 F      9.8200     9.0000    -0.8200     0.3277     0.3277    -0.0000

  Mayer bond orders larger than 0.100000
B(  0-C ,  1-H ) :   0.7541 B(  0-C ,  2-H ) :   0.7541 B(  0-C ,  3-H ) :   0.7541 
B(  0-C ,  4-F ) :   0.2927 

-------
TIMINGS
-------

Total SCF time: 0 days 0 hours 2 min 43 sec 

Total time                  ....     163.839 sec
Sum of individual times     ....     163.443 sec  ( 99.8%)

Fock matrix formation       ....     162.405 sec  ( 99.1%)
Diagonalization             ....       0.636 sec  (  0.4%)
Density matrix formation    ....       0.023 sec  (  0.0%)
Population analysis         ....       0.005 sec  (  0.0%)
Initial guess               ....       0.140 sec  (  0.1%)
Orbital Transformation      ....       0.000 sec  (  0.0%)
Orbital Orthonormalization  ....       0.000 sec  (  0.0%)
DIIS solution               ....       0.194 sec  (  0.1%)

-------------------------   --------------------
FINAL SINGLE POINT ENERGY      -138.773820338954
-------------------------   --------------------

------------------------------------------------------------------------------
                         ORCA SCF GRADIENT CALCULATION
------------------------------------------------------------------------------

Gradient of the Hartree-Fock SCF energy:
Hartree-Fock type                ... UHF
Number of operators              ...    2
Number of atoms                  ...    5
Basis set dimensions             ...  161
Integral neglect threshold       ... 2.5e-11
Integral primitive cutoff        ... 2.5e-12

Nuclear repulsion gradient       ... done
One Electron Gradient            ... done
Pre-screening matrix             ... done
Starting the two electron gradient:
Two electron gradient done

------------------
CARTESIAN GRADIENT
------------------

   1   C   :    0.051456650   -0.092287824    0.007391065
   2   H   :   -0.031504038    0.028325879   -0.003917804
   3   H   :   -0.012339346    0.038195367   -0.014109158
   4   H   :   -0.014828243    0.038706424    0.009599539
   5   F   :    0.007214977   -0.012939845    0.001036357

Difference to translation invariance:
           :    0.0000000000   -0.0000000000   -0.0000000000

Norm of the cartesian gradient     ...    0.1298871226
RMS gradient                       ...    0.0335367108
MAX gradient                       ...    0.0922878240

-------
TIMINGS
-------

Total SCF gradient time            ...        9.020 sec

One electron gradient       ....       0.038 sec  (  0.4%)
Prescreening matrices       ....       0.157 sec  (  1.7%)
Two electron gradient       ....       8.674 sec  ( 96.2%)
------------------------------------------------------------------------------
                         ORCA GEOMETRY RELAXATION STEP
------------------------------------------------------------------------------

Reading the OPT-File                    .... done
Getting information on internals        .... done
Copying old internal coords+grads       .... done
Making the new internal coordinates     .... (new redundants).... done
Validating the new internal coordinates .... (new redundants).... done
Calculating the B-matrix                .... done
Calculating the G,G- and P matrices     .... done
Transforming gradient to internals      .... done
Projecting the internal gradient        .... done
Number of atoms                         ....   5
Number of internal coordinates          ....  13
Current Energy                          ....  -138.773820339 Eh
Current gradient norm                   ....     0.129887123 Eh/bohr
Maximum allowed component of the step   ....  0.300
Current trust radius                    ....  0.300
Evaluating the initial hessian          ....  (Almloef) done
Projecting the Hessian                  .... done
Forming the augmented Hessian           .... done
Diagonalizing the augmented Hessian     .... done
Last element of RFO vector              ....  0.867998163
Lowest eigenvalues of augmented Hessian:
 -0.038921543  0.026077623  0.026077624  0.109918768  0.293923086
Length of the computed step             ....  0.572083475
Warning: the length of the step is outside the trust region - taking restricted step instead
The input lambda is                     ....    -0.038922
   iter:   1  x=   -0.080522  g=    5.703726 f(x)=     0.237280
   iter:   2  x=   -0.119285  g=    2.240027 f(x)=     0.086830
   iter:   3  x=   -0.140293  g=    1.151881 f(x)=     0.024199
   iter:   4  x=   -0.144310  g=    0.848282 f(x)=     0.003407
   iter:   5  x=   -0.144424  g=    0.802879 f(x)=     0.000092
   iter:   6  x=   -0.144425  g=    0.801628 f(x)=     0.000000
   iter:   7  x=   -0.144425  g=    0.801627 f(x)=     0.000000
   iter:   8  x=   -0.144425  g=    0.801627 f(x)=     0.000000
The output lambda is                    ....    -0.144425 (8 iterations)
The final length of the internal step   ....  0.300000000
Converting the step to cartesian space:
 Initial RMS(Int)=    0.0832050294
Transforming coordinates:
 Iter   0:  RMS(Cart)=    0.0525728764 RMS(Int)=    0.0815169566
 Iter   1:  RMS(Cart)=    0.0022071183 RMS(Int)=    0.0035952379
 Iter   2:  RMS(Cart)=    0.0001828019 RMS(Int)=    0.0002237365
 Iter   3:  RMS(Cart)=    0.0000076991 RMS(Int)=    0.0000082922
 Iter   4:  RMS(Cart)=    0.0000005615 RMS(Int)=    0.0000009712
 Iter   5:  RMS(Cart)=    0.0000000562 RMS(Int)=    0.0000000735
Imposing constraints:
 Iter   0:  RMS(Cart)=    0.0005381336 RMS(Int)=    0.0028909866
 Iter   1:  RMS(Cart)=    0.0002707804 RMS(Int)=    0.0014546989
 Iter   2:  RMS(Cart)=    0.0001362524 RMS(Int)=    0.0007319815
 Iter   3:  RMS(Cart)=    0.0000685601 RMS(Int)=    0.0003683216
 Iter   4:  RMS(Cart)=    0.0000344983 RMS(Int)=    0.0001853336
 Iter   5:  RMS(Cart)=    0.0000173590 RMS(Int)=    0.0000932569
 Iter   6:  RMS(Cart)=    0.0000087348 RMS(Int)=    0.0000469254
 Iter   7:  RMS(Cart)=    0.0000043952 RMS(Int)=    0.0000236121
 Iter   8:  RMS(Cart)=    0.0000022116 RMS(Int)=    0.0000118813
 Iter   9:  RMS(Cart)=    0.0000011128 RMS(Int)=    0.0000059785
 Iter  10:  RMS(Cart)=    0.0000005600 RMS(Int)=    0.0000030083
 Iter  11:  RMS(Cart)=    0.0000002818 RMS(Int)=    0.0000015137
 Iter  12:  RMS(Cart)=    0.0000001418 RMS(Int)=    0.0000007617
 Iter  13:  RMS(Cart)=    0.0000000713 RMS(Int)=    0.0000003833
 Iter  14:  RMS(Cart)=    0.0000000359 RMS(Int)=    0.0000001929
 Iter  15:  RMS(Cart)=    0.0000000181 RMS(Int)=    0.0000000970
CONVERGED
done
Storing new coordinates                 .... done

                                .--------------------.
          ----------------------|Geometry convergence|-------------------------
          Item                value                   Tolerance       Converged
          ---------------------------------------------------------------------
          RMS gradient        0.0199113271            0.0001000000      NO
          MAX gradient        0.0274872517            0.0003000000      NO
          RMS step            0.0832050294            0.0020000000      NO
          MAX step            0.1308464698            0.0040000000      NO
          ........................................................
          Max(Bonds)      0.0692      Max(Angles)    4.59
          Max(Dihed)        0.00      Max(Improp)    0.00
          ---------------------------------------------------------------------

The optimization has not yet converged - more geometry cycles are needed


    ---------------------------------------------------------------------------
                         Redundant Internal Coordinates
                            (Angstroem and degrees)

        Definition                    Value    dE/dq     Step     New-Value
    ----------------------------------------------------------------------------
     1. B(H   1,C   0)                1.0809 -0.008292  0.0099    1.0908   
     2. B(H   2,C   0)                1.0809 -0.008292  0.0099    1.0908   
     3. B(H   3,C   0)                1.0809 -0.008292  0.0099    1.0908   
     4. B(F   4,H   3)                4.9564  0.016202 -0.0692    4.8872   
     5. B(F   4,H   1)                4.9564  0.016202 -0.0692    4.8872   
     6. B(F   4,C   0)                4.5000 -0.032708 -0.0000    4.5000 C 
     7. B(F   4,H   2)                4.9564  0.016202 -0.0692    4.8872   
     8. A(H   2,C   0,H   3)          110.05 -0.029230    4.48    114.54   
     9. A(H   1,C   0,F   4)          108.88  0.029892   -4.59    104.30   
    10. A(H   2,C   0,F   4)          108.88  0.029892   -4.59    104.30   
    11. A(H   3,C   0,F   4)          108.88  0.029892   -4.59    104.30   
    12. A(H   1,C   0,H   2)          110.05 -0.029230    4.48    114.54   
    13. A(H   1,C   0,H   3)          110.05 -0.029230    4.48    114.54   
    ----------------------------------------------------------------------------

         *************************************************************
         *                GEOMETRY OPTIMIZATION CYCLE   2            *
         *************************************************************
---------------------------------
CARTESIAN COORDINATES (ANGSTROEM)
---------------------------------
  C     -1.947457    1.413593   -0.161515
  H     -1.160083    2.166871   -0.095095
  H     -2.632931    1.408384    0.688130
  H     -2.441655    1.369109   -1.133928
  F      0.238638   -2.507172    0.152490

----------------------------
CARTESIAN COORDINATES (A.U.)
----------------------------
  NO LB      ZA    FRAG     MASS         X           Y           Z
   0 C     6.0000    0    12.011   -3.680161    2.671303   -0.305218
   1 H     1.0000    0     1.008   -2.192240    4.094793   -0.179703
   2 H     1.0000    0     1.008   -4.975519    2.661459    1.300377
   3 H     1.0000    0     1.008   -4.614059    2.587241   -2.142813
   4 F     9.0000    0    18.998    0.450960   -4.737868    0.288164

--------------------------------
INTERNAL COORDINATES (ANGSTROEM)
--------------------------------
 C      0   0   0     0.000000000000     0.00000000     0.00000000
 H      1   0   0     1.091694763090     0.00000000     0.00000000
 H      1   2   0     1.091694830909   114.12987907     0.00000000
 H      1   2   3     1.091694850055   114.12987761   133.74843276
 F      1   2   3     4.500000049951   104.27452524   246.87421376

---------------------------
INTERNAL COORDINATES (A.U.)
---------------------------
 C      0   0   0     0.000000000000     0.00000000     0.00000000
 H      1   0   0     2.063004124077     0.00000000     0.00000000
 H      1   2   0     2.063004252236   114.12987907     0.00000000
 H      1   2   3     2.063004288415   114.12987761   133.74843276
 F      1   2   3     8.503767697040   104.27452524   246.87421376


Diagonalization of the overlap matrix:
Smallest eigenvalue                        ... 1.263e-04
Time for diagonalization                   ...    0.004 sec
Threshold for overlap eigenvalues          ... 1.000e-08
Number of eigenvalues below threshold      ... 0
Time for construction of square roots      ...    0.002 sec
Total time needed                          ...    0.006 sec

--------------
SCF ITERATIONS
--------------
ITER       Energy         Delta-E        Max-DP      RMS-DP      [F,P]     Damp
               ***  Starting incremental Fock matrix formation  ***
  0   -138.7899063892   0.000000000000 0.00097075  0.00001253  0.0310707 0.9200
  1   -138.7900423384  -0.000135949191 0.00103653  0.00001371  0.0290893 0.9200
                               ***Turning on DIIS***
  2   -138.7901766333  -0.000134294886 0.00098654  0.00001334  0.0270368 0.9200
  3   -138.7883096203   0.001867012956 0.00093791  0.00001285  0.0251549 0.9200
  4   -138.7844074418   0.003902178480 0.00090516  0.00001253  0.0233921 0.9200
  5   -138.7828529664   0.001554475412 0.00086987  0.00001222  0.0217312 0.9200
  6   -138.7837016480  -0.000848681530 0.00082475  0.00001179  0.0201605 0.9200
  7   -138.7865581147  -0.002856466713 0.00076427  0.00001112  0.0186791 0.9200
  8   -138.7874844305  -0.000926315786 0.00070596  0.00001046  0.0172936 0.9200
  9   -138.7869270105   0.000557419949 0.00065063  0.00000983  0.0160029 0.9200
 10   -138.7860618601   0.000865150440 0.00059877  0.00000922  0.0148031 0.9200
 11   -138.7856580759   0.000403784167 0.00055077  0.00000864  0.0136899 0.9200
 12   -138.7858372041  -0.000179128207 0.00050676  0.00000809  0.0126586 0.9200
 13   -138.7861933832  -0.000356179053 0.00046642  0.00000758  0.0117040 0.9200
 14   -138.7864645140  -0.000271130875 0.00042937  0.00000710  0.0108210 0.9200
 15   -138.7866244528  -0.000159938727 0.00039526  0.00000666  0.0100043 0.9200
 16   -138.7867548180  -0.000130365210 0.00036384  0.00000624  0.0092493 0.9200
 17   -138.7869193531  -0.000164535143 0.00033492  0.00000586  0.0085513 0.9200
 18   -138.7871203345  -0.000200981425 0.00030828  0.00000549  0.0079060 0.9200
 19   -138.7873319992  -0.000211664695 0.00028376  0.00000516  0.0073096 0.9200
               *** Restarting incremental Fock matrix formation ***
                                   *** Resetting DIIS ***
 20   -138.7915196836  -0.004187684404 0.00024415  0.00000411  0.0067583 0.9200
 21   -138.7906467222   0.000872961423 0.00022607  0.00000374  0.0062877 0.9200
 22   -138.7890563961   0.001590326133 0.00021347  0.00000360  0.0058579 0.9200
 23   -138.7885218001   0.000534596034 0.00020251  0.00000355  0.0054517 0.9200
 24   -138.7888866897  -0.000364889679 0.00019096  0.00000349  0.0050645 0.9200
 25   -138.7900606353  -0.001173945598 0.00017720  0.00000336  0.0046966 0.9200
 26   -138.7902701153  -0.000209479931 0.00016360  0.00000323  0.0043520 0.9200
 27   -138.7898961102   0.000374005077 0.00015046  0.00000310  0.0040305 0.9200
 28   -138.7894910748   0.000405035361 0.00013807  0.00000296  0.0037312 0.9200
 29   -138.7893306455   0.000160429344 0.00012664  0.00000283  0.0034532 0.9200
 30   -138.7894095369  -0.000078891404 0.00011619  0.00000270  0.0031953 0.9200
 31   -138.7895367324  -0.000127195540 0.00133319  0.00003216  0.0029565 0.0000
 32   -138.7918471389  -0.002310406448 0.00013848  0.00000433  0.0006554 0.0000
 33   -138.7920520045  -0.000204865608 0.00010625  0.00000343  0.0004499 0.0000
 34   -138.7915073619   0.000544642627 0.00011772  0.00000368  0.0004438 0.0000
 35   -138.7908959224   0.000611439486 0.00010740  0.00000364  0.0003387 0.0000
 36   -138.7909115959  -0.000015673562 0.00008408  0.00000268  0.0002939 0.0000
 37   -138.7907650942   0.000146501767 0.00008126  0.00000276  0.0002357 0.0000
 38   -138.7911946085  -0.000429514365 0.00005087  0.00000137  0.0002496 0.0000
 39   -138.7911786750   0.000015933489 0.00005088  0.00000180  0.0001267 0.0000
               *** Restarting incremental Fock matrix formation ***
                                   *** Resetting DIIS ***
 40   -138.7920631199  -0.000884444823 0.00003166  0.00000099  0.0002329 0.0000
 41   -138.7924815203  -0.000418400394 0.00001864  0.00000046  0.0001971 0.0000
 42   -138.7921853449   0.000296175327 0.00001269  0.00000033  0.0000434 0.0000
 43   -138.7920266993   0.000158645625 0.00001228  0.00000040  0.0000334 0.0000
 44   -138.7919145621   0.000112137212 0.00001058  0.00000032  0.0000341 0.0000
 45   -138.7919888401  -0.000074278007 0.00000688  0.00000017  0.0000300 0.0000
 46   -138.7919616765   0.000027163633 0.00000987  0.00000035  0.0000185 0.0000
 47   -138.7919020939   0.000059582612 0.00000632  0.00000019  0.0000304 0.0000
 48   -138.7919371023  -0.000035008427 0.00000475  0.00000014  0.0000244 0.0000
 49   -138.7919698582  -0.000032755874 0.00000339  0.00000010  0.0000207 0.0000
 50   -138.7919966090  -0.000026750804 0.00000235  0.00000007  0.0000156 0.0000
 51   -138.7920078216  -0.000011212618 0.00000206  0.00000006  0.0000117 0.0000
 52   -138.7920130882  -0.000005266651 0.00000173  0.00000005  0.0000118 0.0000
 53   -138.7920256909  -0.000012602679 0.00000118  0.00000003  0.0000109 0.0000
 54   -138.7920439219  -0.000018231006 0.00000053  0.00000002  0.0000078 0.0000
 55   -138.7920584480  -0.000014526120 0.00000075  0.00000002  0.0000037 0.0000
 56   -138.7920651443  -0.000006696299 0.00000046  0.00000001  0.0000011 0.0000
                            ***DIIS convergence achieved***

               *****************************************************
               *                     SUCCESS                       *
               *           SCF CONVERGED AFTER  57 CYCLES          *
               *****************************************************

Total Energy       :         -138.79206701 Eh           -3776.72415 eV
  Last Energy change         ...   -1.8657e-06  Tolerance :   1.0000e-08
  Last MAX-Density change    ...    3.2587e-07  Tolerance :   1.0000e-07
             **** THE GBW FILE WAS UPDATED (orca.gbw) ****
             **** DENSITY FILE WAS UPDATED (orca.scfp) ****
             **** ENERGY FILE WAS UPDATED (orca.en.tmp) ****
----------------------
UHF SPIN CONTAMINATION
----------------------

Expectation value of <S**2>     :     0.000000
Ideal value S*(S+1) for S=0.0   :     0.000000
Deviation                       :     0.000000

             **** THE GBW FILE WAS UPDATED (orca.gbw) ****
             **** DENSITY FILE WAS UPDATED (orca.scfp) ****
Total SCF time: 0 days 0 hours 1 min 53 sec 

-------------------------   --------------------
FINAL SINGLE POINT ENERGY      -138.792067010072
-------------------------   --------------------

------------------------------------------------------------------------------
                         ORCA SCF GRADIENT CALCULATION
------------------------------------------------------------------------------

Gradient of the Hartree-Fock SCF energy:
Hartree-Fock type                ... UHF
Number of operators              ...    2
Number of atoms                  ...    5
Basis set dimensions             ...  161
Integral neglect threshold       ... 2.5e-11
Integral primitive cutoff        ... 2.5e-12

Nuclear repulsion gradient       ... done
One Electron Gradient            ... done
Pre-screening matrix             ... done
Starting the two electron gradient:
Two electron gradient done

------------------
CARTESIAN GRADIENT
------------------

   1   C   :    0.041704979   -0.074797788    0.005990396
   2   H   :   -0.015568755    0.029688033   -0.002274309
   3   H   :   -0.016769593    0.029069642   -0.001635717
   4   H   :   -0.016613644    0.029037621   -0.003121313
   5   F   :    0.007247013   -0.012997508    0.001040942

Difference to translation invariance:
           :   -0.0000000000   -0.0000000000    0.0000000000

Norm of the cartesian gradient     ...    0.1047819318
RMS gradient                       ...    0.0270545785
MAX gradient                       ...    0.0747977884

-------
TIMINGS
-------

Total SCF gradient time            ...        8.942 sec

One electron gradient       ....       0.033 sec  (  0.4%)
Prescreening matrices       ....       0.158 sec  (  1.8%)
Two electron gradient       ....       8.616 sec  ( 96.4%)
------------------------------------------------------------------------------
                         ORCA GEOMETRY RELAXATION STEP
------------------------------------------------------------------------------

Reading the OPT-File                    .... done
Getting information on internals        .... done
Copying old internal coords+grads       .... done
Making the new internal coordinates     .... (new redundants).... done
Validating the new internal coordinates .... (new redundants).... done
Calculating the B-matrix                .... done
Calculating the G,G- and P matrices     .... done
Transforming gradient to internals      .... done
Projecting the internal gradient        .... done
Number of atoms                         ....   5
Number of internal coordinates          ....  13
Current Energy                          ....  -138.792067010 Eh
Current gradient norm                   ....     0.104781932 Eh/bohr
Maximum allowed component of the step   ....  0.300
Current trust radius                    ....  0.300
Updating the Hessian (BFGS)             .... done
Forming the augmented Hessian           .... done
Diagonalizing the augmented Hessian     .... done
Last element of RFO vector              ....  0.836787649
Lowest eigenvalues of augmented Hessian:
 -0.033596806  0.026077623  0.026077624  0.078122362  0.293923086
Length of the computed step             ....  0.654320797
Warning: the length of the step is outside the trust region - taking restricted step instead
The input lambda is                     ....    -0.033597
   iter:   1  x=   -0.064513  g=   10.937100 f(x)=     0.338136
   iter:   2  x=   -0.096800  g=    4.028558 f(x)=     0.130071
   iter:   3  x=   -0.119012  g=    1.852083 f(x)=     0.041138
   iter:   4  x=   -0.125696  g=    1.195920 f(x)=     0.007993
   iter:   5  x=   -0.126133  g=    1.060657 f(x)=     0.000464
   iter:   6  x=   -0.126135  g=    1.052529 f(x)=     0.000002
   iter:   7  x=   -0.126135  g=    1.052498 f(x)=     0.000000
   iter:   8  x=   -0.126135  g=    1.052498 f(x)=     0.000000
The output lambda is                    ....    -0.126135 (8 iterations)
The final length of the internal step   ....  0.300000000
Converting the step to cartesian space:
 Initial RMS(Int)=    0.0832050294
Transforming coordinates:
 Iter   0:  RMS(Cart)=    0.0464262751 RMS(Int)=    0.0816716255
 Iter   1:  RMS(Cart)=    0.0022999688 RMS(Int)=    0.0032318508
 Iter   2:  RMS(Cart)=    0.0001544688 RMS(Int)=    0.0001723113
 Iter   3:  RMS(Cart)=    0.0000048139 RMS(Int)=    0.0000063429
 Iter   4:  RMS(Cart)=    0.0000005293 RMS(Int)=    0.0000007683
 Iter   5:  RMS(Cart)=    0.0000000403 RMS(Int)=    0.0000000462
Imposing constraints:
 Iter   0:  RMS(Cart)=    0.0009723667 RMS(Int)=    0.0043734072
 Iter   1:  RMS(Cart)=    0.0004513490 RMS(Int)=    0.0020300294
 Iter   2:  RMS(Cart)=    0.0002095052 RMS(Int)=    0.0009422904
 Iter   3:  RMS(Cart)=    0.0000972472 RMS(Int)=    0.0004373883
 Iter   4:  RMS(Cart)=    0.0000451398 RMS(Int)=    0.0002030250
 Iter   5:  RMS(Cart)=    0.0000209528 RMS(Int)=    0.0000942393
 Iter   6:  RMS(Cart)=    0.0000097258 RMS(Int)=    0.0000437436
 Iter   7:  RMS(Cart)=    0.0000045145 RMS(Int)=    0.0000203047
 Iter   8:  RMS(Cart)=    0.0000020955 RMS(Int)=    0.0000094250
 Iter   9:  RMS(Cart)=    0.0000009727 RMS(Int)=    0.0000043748
 Iter  10:  RMS(Cart)=    0.0000004515 RMS(Int)=    0.0000020307
 Iter  11:  RMS(Cart)=    0.0000002096 RMS(Int)=    0.0000009426
 Iter  12:  RMS(Cart)=    0.0000000973 RMS(Int)=    0.0000004375
 Iter  13:  RMS(Cart)=    0.0000000452 RMS(Int)=    0.0000002031
 Iter  14:  RMS(Cart)=    0.0000000210 RMS(Int)=    0.0000000943
CONVERGED
done
Storing new coordinates                 .... done

                                .--------------------.
          ----------------------|Geometry convergence|-------------------------
          Item                value                   Tolerance       Converged
          ---------------------------------------------------------------------
          Energy change      -0.0182466711            0.0000050000      NO
          RMS gradient        0.0143483722            0.0001000000      NO
          MAX gradient        0.0242661495            0.0003000000      NO
          RMS step            0.0832050294            0.0020000000      NO
          MAX step            0.1401439138            0.0040000000      NO
          ........................................................
          Max(Bonds)      0.0742      Max(Angles)    4.35
          Max(Dihed)        0.00      Max(Improp)    0.00
          ---------------------------------------------------------------------

The optimization has not yet converged - more geometry cycles are needed


    ---------------------------------------------------------------------------
                         Redundant Internal Coordinates
                            (Angstroem and degrees)

        Definition                    Value    dE/dq     Step     New-Value
    ----------------------------------------------------------------------------
     1. B(H   1,C   0)                1.0917  0.002194 -0.0034    1.0883   
     2. B(H   2,C   0)                1.0917  0.002194 -0.0034    1.0883   
     3. B(H   3,C   0)                1.0917  0.002194 -0.0034    1.0883   
     4. B(F   4,H   3)                4.8851  0.015367 -0.0742    4.8110   
     5. B(F   4,H   1)                4.8851  0.015367 -0.0742    4.8110   
     6. B(F   4,C   0)                4.5000 -0.030088  0.0000    4.5000 C 
     7. B(F   4,H   2)                4.8851  0.015367 -0.0742    4.8110   
     8. A(H   2,C   0,H   3)          114.13 -0.018661    3.87    118.00   
     9. A(H   1,C   0,F   4)          104.27  0.023757   -4.35     99.93   
    10. A(H   2,C   0,F   4)          104.27  0.023757   -4.35     99.93   
    11. A(H   3,C   0,F   4)          104.27  0.023757   -4.35     99.93   
    12. A(H   1,C   0,H   2)          114.13 -0.018661    3.87    118.00   
    13. A(H   1,C   0,H   3)          114.13 -0.018661    3.87    118.00   
    ----------------------------------------------------------------------------

         *************************************************************
         *                GEOMETRY OPTIMIZATION CYCLE   3            *
         *************************************************************
---------------------------------
CARTESIAN COORDINATES (ANGSTROEM)
---------------------------------
  C     -1.971577    1.456851   -0.164979
  H     -1.130639    2.145583   -0.091545
  H     -2.624925    1.376055    0.703080
  H     -2.430865    1.336209   -1.145499
  F      0.214518   -2.463913    0.149025

----------------------------
CARTESIAN COORDINATES (A.U.)
----------------------------
  NO LB      ZA    FRAG     MASS         X           Y           Z
   0 C     6.0000    0    12.011   -3.725740    2.753050   -0.311765
[...]
  21   0.0000       0.170714         4.6454 
  22   0.0000       0.251834         6.8527 
  23   0.0000       0.251834         6.8527 
  24   0.0000       0.259042         7.0489 
  25   0.0000       0.262153         7.1335 
  26   0.0000       0.276491         7.5237 
  27   0.0000       0.300805         8.1853 
  28   0.0000       0.308152         8.3853 
  29   0.0000       0.308152         8.3853 
  30   0.0000       0.321095         8.7374 
  31   0.0000       0.321095         8.7374 
  32   0.0000       0.338225         9.2036 
  33   0.0000       0.338225         9.2036 
  34   0.0000       0.362413         9.8617 
  35   0.0000       0.364489         9.9183 
  36   0.0000       0.364489         9.9183 
  37   0.0000       0.410221        11.1627 
  38   0.0000       0.510660        13.8958 
  39   0.0000       0.585373        15.9288 
  40   0.0000       0.601681        16.3726 
  41   0.0000       0.601681        16.3726 
  42   0.0000       0.686119        18.6702 
  43   0.0000       0.686119        18.6702 
  44   0.0000       0.705546        19.1989 
  45   0.0000       0.705546        19.1989 
  46   0.0000       0.725105        19.7311 
  47   0.0000       0.759411        20.6646 
  48   0.0000       0.821301        22.3487 
  49   0.0000       0.855012        23.2660 
  50   0.0000       0.855012        23.2660 
  51   0.0000       0.866044        23.5662 
  52   0.0000       0.867229        23.5985 
  53   0.0000       0.867229        23.5985 
  54   0.0000       0.933842        25.4111 
  55   0.0000       0.933842        25.4111 
  56   0.0000       0.942426        25.6447 
  57   0.0000       0.979322        26.6487 
  58   0.0000       0.993830        27.0435 
  59   0.0000       0.993830        27.0435 
  60   0.0000       1.002968        27.2922 
  61   0.0000       1.002968        27.2922 
  62   0.0000       1.102131        29.9905 
  63   0.0000       1.102131        29.9905 
  64   0.0000       1.115239        30.3472 
  65   0.0000       1.115239        30.3472 
  66   0.0000       1.130235        30.7553 
  67   0.0000       1.152402        31.3584 
  68   0.0000       1.264434        34.4070 
  69   0.0000       1.264434        34.4070 
  70   0.0000       1.403362        38.1874 
  71   0.0000       1.403362        38.1874 
  72   0.0000       1.413871        38.4734 
  73   0.0000       1.425164        38.7807 
  74   0.0000       1.425164        38.7807 
  75   0.0000       1.427762        38.8514 
  76   0.0000       1.435557        39.0635 
  77   0.0000       1.460997        39.7558 
  78   0.0000       1.468487        39.9596 
  79   0.0000       1.468487        39.9596 
  80   0.0000       1.570424        42.7334 
  81   0.0000       1.749583        47.6086 
  82   0.0000       1.749583        47.6086 
  83   0.0000       1.878715        51.1224 
  84   0.0000       1.878715        51.1224 
  85   0.0000       1.886146        51.3246 
  86   0.0000       1.999051        54.3969 
  87   0.0000       1.999051        54.3969 
  88   0.0000       2.008875        54.6643 
  89   0.0000       2.043419        55.6042 
  90   0.0000       2.708093        73.6910 
  91   0.0000       2.746605        74.7389 
  92   0.0000       2.746605        74.7389 
  93   0.0000       2.973390        80.9101 
  94   0.0000       2.981065        81.1189 
  95   0.0000       2.981065        81.1189 
  96   0.0000       3.148127        85.6649 
  97   0.0000       3.148127        85.6649 
  98   0.0000       3.152693        85.7891 
  99   0.0000       3.152693        85.7891 
 100   0.0000       3.165737        86.1441 
 101   0.0000       3.196116        86.9707 
 102   0.0000       3.196116        86.9707 
 103   0.0000       3.196649        86.9852 
 104   0.0000       3.196649        86.9852 
 105   0.0000       3.199006        87.0494 
 106   0.0000       3.199007        87.0494 
 107   0.0000       3.199429        87.0609 
 108   0.0000       3.299448        89.7825 
 109   0.0000       3.351156        91.1896 
 110   0.0000       3.351156        91.1896 
 111   0.0000       3.363554        91.5270 
 112   0.0000       3.363554        91.5270 
 113   0.0000       3.425761        93.2197 
 114   0.0000       3.425761        93.2197 
 115   0.0000       3.445845        93.7662 
 116   0.0000       3.472356        94.4876 
 117   0.0000       3.696572       100.5888 
 118   0.0000       3.702081       100.7388 
 119   0.0000       3.767469       102.5180 
 120   0.0000       3.767469       102.5180 
 121   0.0000       3.997310       108.7723 
 122   0.0000       3.997310       108.7723 
 123   0.0000       4.149749       112.9204 
 124   0.0000       4.149749       112.9204 
 125   0.0000       4.156119       113.0938 
 126   0.0000       4.422007       120.3289 
 127   0.0000       4.575783       124.5134 
 128   0.0000       4.575783       124.5134 
 129   0.0000       4.636095       126.1545 
 130   0.0000       4.636095       126.1545 
 131   0.0000       4.799659       130.6054 
 132   0.0000       4.810855       130.9100 
 133   0.0000       5.072184       138.0212 
 134   0.0000       5.072184       138.0212 
 135   0.0000       5.125003       139.4584 
 136   0.0000       5.125003       139.4584 
 137   0.0000       5.211661       141.8165 
 138   0.0000       5.211661       141.8165 
 139   0.0000       5.340438       145.3207 
 140   0.0000       5.539689       150.7426 
 141   0.0000       5.539689       150.7426 
 142   0.0000       5.557466       151.2263 
 143   0.0000       6.131741       166.8531 
 144   0.0000       6.232731       169.6012 
 145   0.0000       6.232732       169.6012 
 146   0.0000       6.455774       175.6705 
 147   0.0000       9.126224       248.3372 
 148   0.0000       9.126224       248.3372 
 149   0.0000       9.126639       248.3485 
 150   0.0000       9.127829       248.3808 
 151   0.0000       9.127829       248.3808 
 152   0.0000       9.131137       248.4709 
 153   0.0000       9.131138       248.4709 
 154   0.0000       9.606097       261.3952 
 155   0.0000       9.606097       261.3952 
 156   0.0000       9.607671       261.4380 
 157   0.0000       9.607671       261.4380 
 158   0.0000       9.617688       261.7106 
 159   0.0000      11.010781       299.6186 
 160   0.0000      16.372733       445.5247 

                    ********************************
                    * MULLIKEN POPULATION ANALYSIS *
                    ********************************

--------------------------------------------
MULLIKEN ATOMIC CHARGES AND SPIN POPULATIONS
--------------------------------------------
   0 C :   -0.807647    0.000000
   1 H :    0.582100    0.000000
   2 H :    0.582100    0.000000
   3 H :    0.582100    0.000000
   4 F :   -0.938653    0.000000
Sum of atomic charges         :    0.0000000
Sum of atomic spin populations:    0.0000000

-----------------------------------------------------
MULLIKEN REDUCED ORBITAL CHARGES AND SPIN POPULATIONS
-----------------------------------------------------
CHARGE
  0 C s       :     3.759403  s :     3.759403
      pz      :     1.429884  p :     2.930568
      px      :     1.111100
      py      :     0.389583
      dz2     :     0.038413  d :     0.109396
      dxz     :     0.036717
      dyz     :     0.009744
      dx2y2   :     0.006140
      dxy     :     0.018382
      f0      :     0.000678  f :     0.008279
      f+1     :     0.003702
      f-1     :     0.001305
      f+2     :     0.000408
      f-2     :     0.000589
      f+3     :     0.000008
      f-3     :     0.001590
  1 H s       :     0.367364  s :     0.367364
      pz      :     0.023030  p :     0.043554
      px      :     0.015091
      py      :     0.005434
      dz2     :    -0.000011  d :     0.006983
      dxz     :     0.004526
      dyz     :     0.001317
      dx2y2   :     0.000415
      dxy     :     0.000735
  2 H s       :     0.367363  s :     0.367363
      pz      :     0.021205  p :     0.043554
      px      :     0.017302
      py      :     0.005047
      dz2     :     0.004342  d :     0.006983
      dxz     :     0.000633
      dyz     :     0.000346
      dx2y2   :     0.000481
      dxy     :     0.001181
  3 H s       :     0.367364  s :     0.367364
      pz      :     0.021011  p :     0.043554
      px      :     0.017589
      py      :     0.004953
      dz2     :     0.003253  d :     0.006983
      dxz     :     0.001993
      dyz     :     0.000552
      dx2y2   :     0.000179
      dxy     :     0.001005
  4 F s       :     4.001066  s :     4.001066
      pz      :     1.999114  p :     5.937302
      px      :     1.985031
      py      :     1.953157
      dz2     :     0.000042  d :     0.000281
      dxz     :     0.000014
      dyz     :     0.000044
      dx2y2   :     0.000075
      dxy     :     0.000106
      f0      :     0.000000  f :     0.000003
      f+1     :     0.000000
      f-1     :     0.000001
      f+2     :     0.000000
      f-2     :     0.000000
      f+3     :     0.000001
      f-3     :     0.000001

SPIN
  0 C s       :     0.000000  s :     0.000000
      pz      :     0.000000  p :     0.000000
      px      :     0.000000
      py      :     0.000000
      dz2     :     0.000000  d :     0.000000
      dxz     :     0.000000
      dyz     :     0.000000
      dx2y2   :     0.000000
      dxy     :     0.000000
      f0      :     0.000000  f :     0.000000
      f+1     :     0.000000
      f-1     :     0.000000
      f+2     :     0.000000
      f-2     :     0.000000
      f+3     :     0.000000
      f-3     :     0.000000
  1 H s       :     0.000000  s :     0.000000
      pz      :     0.000000  p :     0.000000
      px      :     0.000000
      py      :     0.000000
      dz2     :     0.000000  d :     0.000000
      dxz     :     0.000000
      dyz     :     0.000000
      dx2y2   :     0.000000
      dxy     :     0.000000
  2 H s       :     0.000000  s :     0.000000
      pz      :     0.000000  p :     0.000000
      px      :     0.000000
      py      :     0.000000
      dz2     :     0.000000  d :     0.000000
      dxz     :     0.000000
      dyz     :     0.000000
      dx2y2   :     0.000000
      dxy     :     0.000000
  3 H s       :     0.000000  s :     0.000000
      pz      :     0.000000  p :     0.000000
      px      :     0.000000
      py      :     0.000000
      dz2     :     0.000000  d :     0.000000
      dxz     :     0.000000
      dyz     :     0.000000
      dx2y2   :     0.000000
      dxy     :     0.000000
  4 F s       :     0.000000  s :     0.000000
      pz      :     0.000000  p :     0.000000
      px      :     0.000000
      py      :     0.000000
      dz2     :     0.000000  d :     0.000000
      dxz     :     0.000000
      dyz     :     0.000000
      dx2y2   :     0.000000
      dxy     :     0.000000
      f0      :     0.000000  f :     0.000000
      f+1     :     0.000000
      f-1     :     0.000000
      f+2     :     0.000000
      f-2     :     0.000000
      f+3     :     0.000000
      f-3     :     0.000000


                     *******************************
                     * LOEWDIN POPULATION ANALYSIS *
                     *******************************

-------------------------------------------
LOEWDIN ATOMIC CHARGES AND SPIN POPULATIONS
-------------------------------------------
   0 C :    1.284286    0.000000
   1 H :   -0.117764    0.000000
   2 H :   -0.117764    0.000000
   3 H :   -0.117764    0.000000
   4 F :   -0.930994    0.000000

----------------------------------------------------
LOEWDIN REDUCED ORBITAL CHARGES AND SPIN POPULATIONS
----------------------------------------------------
CHARGE
  0 C s       :     2.614362  s :     2.614362
      pz      :     0.934272  p :     1.913492
      px      :     0.725674
      py      :     0.253545
      dz2     :     0.056908  d :     0.161199
      dxz     :     0.053926
      dyz     :     0.015546
      dx2y2   :     0.009148
      dxy     :     0.025671
      f0      :     0.002764  f :     0.026661
      f+1     :     0.009326
      f-1     :     0.003368
      f+2     :     0.001423
      f-2     :     0.002926
      f+3     :     0.000076
      f-3     :     0.006778
  1 H s       :     0.676470  s :     0.676470
      pz      :     0.082452  p :     0.273110
      px      :     0.144388
      py      :     0.046269
      dz2     :     0.013121  d :     0.168184
      dxz     :     0.070247
      dyz     :     0.021898
      dx2y2   :     0.019729
      dxy     :     0.043188
  2 H s       :     0.676470  s :     0.676470
      pz      :     0.151141  p :     0.273110
      px      :     0.090595
      py      :     0.031374
      dz2     :     0.082073  d :     0.168184
      dxz     :     0.041896
      dyz     :     0.012252
      dx2y2   :     0.010627
      dxy     :     0.021335
  3 H s       :     0.676470  s :     0.676470
      pz      :     0.164483  p :     0.273110
      px      :     0.075158
      py      :     0.033468
      dz2     :     0.079785  d :     0.168184
      dxz     :     0.048468
      dyz     :     0.019470
      dx2y2   :     0.003413
      dxy     :     0.017048
  4 F s       :     3.998183  s :     3.998183
      pz      :     1.999033  p :     5.932551
      px      :     1.983893
      py      :     1.949625
      dz2     :     0.000035  d :     0.000256
      dxz     :     0.000014
      dyz     :     0.000044
      dx2y2   :     0.000070
      dxy     :     0.000092
      f0      :     0.000000  f :     0.000003
      f+1     :     0.000000
      f-1     :     0.000000
      f+2     :     0.000000
      f-2     :     0.000000
      f+3     :     0.000001
      f-3     :     0.000001

SPIN
  0 C s       :     0.000000  s :     0.000000
      pz      :     0.000000  p :     0.000000
      px      :     0.000000
      py      :     0.000000
      dz2     :     0.000000  d :     0.000000
      dxz     :     0.000000
      dyz     :     0.000000
      dx2y2   :     0.000000
      dxy     :     0.000000
      f0      :     0.000000  f :     0.000000
      f+1     :     0.000000
      f-1     :     0.000000
      f+2     :     0.000000
      f-2     :     0.000000
      f+3     :     0.000000
      f-3     :     0.000000
  1 H s       :     0.000000  s :     0.000000
      pz      :     0.000000  p :     0.000000
      px      :     0.000000
      py      :     0.000000
      dz2     :     0.000000  d :     0.000000
      dxz     :     0.000000
      dyz     :     0.000000
      dx2y2   :     0.000000
      dxy     :     0.000000
  2 H s       :     0.000000  s :     0.000000
      pz      :     0.000000  p :     0.000000
      px      :     0.000000
      py      :     0.000000
      dz2     :     0.000000  d :     0.000000
      dxz     :     0.000000
      dyz     :     0.000000
      dx2y2   :     0.000000
      dxy     :     0.000000
  3 H s       :     0.000000  s :     0.000000
      pz      :     0.000000  p :     0.000000
      px      :     0.000000
      py      :     0.000000
      dz2     :     0.000000  d :     0.000000
      dxz     :     0.000000
      dyz     :     0.000000
      dx2y2   :     0.000000
      dxy     :     0.000000
  4 F s       :     0.000000  s :     0.000000
      pz      :     0.000000  p :     0.000000
      px      :     0.000000
      py      :     0.000000
      dz2     :     0.000000  d :     0.000000
      dxz     :     0.000000
      dyz     :     0.000000
      dx2y2   :     0.000000
      dxy     :     0.000000
      f0      :     0.000000  f :     0.000000
      f+1     :     0.000000
      f-1     :     0.000000
      f+2     :     0.000000
      f-2     :     0.000000
      f+3     :     0.000000
      f-3     :     0.000000


                      *****************************
                      * MAYER POPULATION ANALYSIS *
                      *****************************

  NA   - Mulliken gross atomic population
  ZA   - Total nuclear charge
  QA   - Mulliken gross atomic charge
  VA   - Mayer's total valence
  BVA  - Mayer's bonded valence
  FA   - Mayer's free valence

  ATOM       NA         ZA         QA         VA         BVA        FA
  0 C      6.8076     6.0000    -0.8076     2.0412     2.0412     0.0000
  1 H      0.4179     1.0000     0.5821     0.7255     0.7255     0.0000
  2 H      0.4179     1.0000     0.5821     0.7255     0.7255     0.0000
  3 H      0.4179     1.0000     0.5821     0.7255     0.7255     0.0000
  4 F      9.9387     9.0000    -0.9387     0.1191     0.1191     0.0000

  Mayer bond orders larger than 0.100000
B(  0-C ,  1-H ) :   0.6414 B(  0-C ,  2-H ) :   0.6414 B(  0-C ,  3-H ) :   0.6414 
B(  0-C ,  4-F ) :   0.1169 

-------
TIMINGS
-------

Total SCF time: 0 days 0 hours 0 min 3 sec 

Total time                  ....       3.840 sec
Sum of individual times     ....       3.683 sec  ( 95.9%)

Fock matrix formation       ....       3.655 sec  ( 95.2%)
Diagonalization             ....       0.015 sec  (  0.4%)
Density matrix formation    ....       0.001 sec  (  0.0%)
Population analysis         ....       0.005 sec  (  0.1%)
Initial guess               ....       0.005 sec  (  0.1%)
Orbital Transformation      ....       0.000 sec  (  0.0%)
Orbital Orthonormalization  ....       0.004 sec  (  0.1%)
DIIS solution               ....       0.003 sec  (  0.1%)

-------------------------   --------------------
FINAL SINGLE POINT ENERGY      -138.818432038533
-------------------------   --------------------

                                *** OPTIMIZATION RUN DONE ***

                            ***************************************
                            *     ORCA property calculations      *
                            ***************************************

                                    ---------------------
                                    Active property flags
                                    ---------------------
   (+) Dipole Moment


------------------------------------------------------------------------------
                       ORCA ELECTRIC PROPERTIES CALCULATION
------------------------------------------------------------------------------

Dipole Moment Calculation                       ... on
Quadrupole Moment Calculation                   ... off
Polarizability Calculation                      ... off
GBWName                                         ... orca.gbw
Electron density file                           ... orca.scfp
The origin for moment calculation is the CENTER OF MASS  = (-1.525335, -1.193381  0.004295)

-------------
DIPOLE MOMENT
-------------
                                X             Y             Z
Electronic contribution:      0.50597      -0.90747       0.07268
Nuclear contribution   :     -4.32126       7.75019      -0.62069
                        -----------------------------------------
Total Dipole Moment    :     -3.81529       6.84273      -0.54802
                        -----------------------------------------
Magnitude (a.u.)       :      7.85364
Magnitude (Debye)      :     19.96236



--------------------
Rotational spectrum 
--------------------
 
Rotational constants in cm-1:     4.802310     0.098230     0.098230 
Rotational constants in MHz : 143969.632070  2944.857901  2944.857900 

 Dipole components along the rotational axes: 
x,y,z [a.u.] :     7.853639     0.000000    -0.000000 
x,y,z [Debye]:    19.962365     0.000000    -0.000000 

 

Timings for individual modules:

Sum of individual times         ...      759.161 sec (=  12.653 min)
GTO integral calculation        ...        2.570 sec (=   0.043 min)   0.3 %
SCF iterations                  ...      696.214 sec (=  11.604 min)  91.7 %
SCF Gradient evaluation         ...       59.328 sec (=   0.989 min)   7.8 %
Geometry relaxation             ...        1.048 sec (=   0.017 min)   0.1 %
                             ****ORCA TERMINATED NORMALLY****
TOTAL RUN TIME: 0 days 0 hours 12 minutes 39 seconds 412 msec
