
                                 *****************
                                 * O   R   C   A *
                                 *****************

           --- An Ab Initio, DFT and Semiempirical electronic structure package ---

                  #######################################################
                  #                        -***-                        #
                  #          Department of theory and spectroscopy      #
                  #               Directorship: Frank Neese             #
                  #        Max Planck Institute fuer Kohlenforschung    #
                  #                Kaiser Wilhelm Platz 1               #
                  #                 D-45470 Muelheim/Ruhr               #
                  #                      Germany                        #
                  #                                                     #
                  #                  All rights reserved                #
                  #                        -***-                        #
                  #######################################################


                         Program Version 4.2.1 -  RELEASE  -


 With contributions from (in alphabetic order):
   Daniel Aravena         : Magnetic Suceptibility
   Michael Atanasov       : Ab Initio Ligand Field Theory (pilot matlab implementation)
   Alexander A. Auer      : GIAO ZORA, VPT2
   Ute Becker             : Parallelization
   Giovanni Bistoni       : ED, misc. LED, open-shell LED, HFLD
   Martin Brehm           : Molecular dynamics
   Dmytro Bykov           : SCF Hessian
   Vijay G. Chilkuri      : MRCI spin determinant printing, contributions to CSF-ICE
   Dipayan Datta          : RHF DLPNO-CCSD density
   Achintya Kumar Dutta   : EOM-CC, STEOM-CC
   Dmitry Ganyushin       : Spin-Orbit,Spin-Spin,Magnetic field MRCI
   Miquel Garcia          : C-PCM Hessian, Gaussian charge scheme
   Yang Guo               : DLPNO-NEVPT2, CIM, IAO-localization
   Andreas Hansen         : Spin unrestricted coupled pair/coupled cluster methods
   Benjamin Helmich-Paris : CASSCF linear response (MC-RPA)
   Lee Huntington         : MR-EOM, pCC
   Robert Izsak           : Overlap fitted RIJCOSX, COSX-SCS-MP3, EOM
   Christian Kollmar      : KDIIS, OOCD, Brueckner-CCSD(T), CCSD density
   Simone Kossmann        : Meta GGA functionals, TD-DFT gradient, OOMP2, MP2 Hessian
   Martin Krupicka        : AUTO-CI
   Lucas Lang             : DCDCAS
   Dagmar Lenk            : GEPOL surface, SMD
   Dimitrios Liakos       : Extrapolation schemes; Compound Job, initial MDCI parallelization
   Dimitrios Manganas     : Further ROCIS development; embedding schemes
   Dimitrios Pantazis     : SARC Basis sets
   Taras Petrenko         : DFT Hessian,TD-DFT gradient, ASA, ECA, R-Raman, ABS, FL, XAS/XES, NRVS
   Peter Pinski           : DLPNO-MP2, DLPNO-MP2 Gradient
   Christoph Reimann      : Effective Core Potentials
   Marius Retegan         : Local ZFS, SOC
   Christoph Riplinger    : Optimizer, TS searches, QM/MM, DLPNO-CCSD(T), (RO)-DLPNO pert. Triples
   Tobias Risthaus        : Range-separated hybrids, TD-DFT gradient, RPA, STAB
   Michael Roemelt        : Original ROCIS implementation
   Masaaki Saitow         : Open-shell DLPNO-CCSD energy and density
   Barbara Sandhoefer     : DKH picture change effects
   Avijit Sen             : IP-ROCIS
   Kantharuban Sivalingam : CASSCF convergence, NEVPT2, FIC-MRCI
   Bernardo de Souza      : ESD, SOC TD-DFT
   Georgi Stoychev        : AutoAux, RI-MP2 NMR
   Willem Van den Heuvel  : Paramagnetic NMR
   Boris Wezisla          : Elementary symmetry handling
   Frank Wennmohs         : Technical directorship


 We gratefully acknowledge several colleagues who have allowed us to
 interface, adapt or use parts of their codes:
   Stefan Grimme, W. Hujo, H. Kruse,             : VdW corrections, initial TS optimization,
                  C. Bannwarth                     DFT functionals, gCP, sTDA/sTD-DF
   Ed Valeev, F. Pavosevic, A. Kumar             : LibInt (2-el integral package), F12 methods
   Garnet Chan, S. Sharma, J. Yang, R. Olivares  : DMRG
   Ulf Ekstrom                                   : XCFun DFT Library
   Mihaly Kallay                                 : mrcc  (arbitrary order and MRCC methods)
   Andreas Klamt, Michael Diedenhofen            : otool_cosmo (COSMO solvation model)
   Jiri Pittner, Ondrej Demel                    : Mk-CCSD
   Frank Weinhold                                : gennbo (NPA and NBO analysis)
   Christopher J. Cramer and Donald G. Truhlar   : smd solvation model
   Lars Goerigk                                  : TD-DFT with DH, B97 family of functionals
   V. Asgeirsson, H. Jonsson                     : NEB implementation
   FAccTs GmbH                                   : IRC, NEB, NEB-TS, Multilevel, MM, QM/MM, CI optimization
   S Lehtola, MJT Oliveira, MAL Marques          : LibXC Library


 Your calculation uses the libint2 library for the computation of 2-el integrals
 For citations please refer to: http://libint.valeyev.net

 Your ORCA version has been built with support for libXC version: 4.2.3
 For citations please refer to: https://tddft.org/programs/libxc/

 This ORCA versions uses:
   CBLAS   interface :  Fast vector & matrix operations
   LAPACKE interface :  Fast linear algebra routines
   SCALAPACK package :  Parallel linear algebra routines


----- Orbital basis set information -----
Your calculation utilizes the basis: 6-311G
   H, Li - Ne  : R. Krishnan, J. S. Binkley, R. Seeger and J. A. Pople, J. Chem. Phys. 72, 650 (1980).
   Na - Ar     : A. D. McLean and G. S. Chandler J. Chem. Phys. 72, 5639, (1980).
   K  - Ca     : J.-P. Blaudeau, M. P. McGrath, L. A. Curtiss and L. Radom, J. Chem. Phys. 107, 5016 (1997).
   Ga - Kr     : L. A. Curtiss, M. P. McGrath, J.-P. Blandeau, N. E. Davis, R. C. Binning and L. Radom, J. Chem. Phys. 103, 6104 (1995).

================================================================================
                                        WARNINGS
                       Please study these warnings very carefully!
================================================================================


WARNING: Geometry Optimization
  ===> : Switching off AutoStart
         For restart on a previous wavefunction, please use MOREAD

INFO   : the flag for use of LIBINT has been found!

================================================================================
                                       INPUT FILE
================================================================================
NAME = orca.inp
|  1> !RHF 6-311G OPT
|  2> *xyz 0 1
|  3> C      0.26399   -0.46477   -0.00000
|  4> H     -0.68724    0.10613    0.00000
|  5> H      1.11931    0.24176   -0.00000
|  6> **                         ****END OF INPUT****
================================================================================

                       *****************************
                       * Geometry Optimization Run *
                       *****************************

Geometry optimization settings:
Update method            Update   .... BFGS
Choice of coordinates    CoordSys .... Z-matrix Internals
Initial Hessian          InHess   .... Almoef's Model

Convergence Tolerances:
Energy Change            TolE     ....  5.0000e-06 Eh
Max. Gradient            TolMAXG  ....  3.0000e-04 Eh/bohr
RMS Gradient             TolRMSG  ....  1.0000e-04 Eh/bohr
Max. Displacement        TolMAXD  ....  4.0000e-03 bohr
RMS Displacement         TolRMSD  ....  2.0000e-03 bohr
Strict Convergence                ....  False
------------------------------------------------------------------------------
                        ORCA OPTIMIZATION COORDINATE SETUP
------------------------------------------------------------------------------

The optimization will be done in new redundant internal coordinates
Making redundant internal coordinates   ...  (new redundants) done
Evaluating the initial hessian          ...  (Almloef) done
Evaluating the coordinates              ...  done
Calculating the B-matrix                .... done
Calculating the G-matrix                .... done
Diagonalizing the G-matrix              .... done
The first mode is                       ....    0
The number of degrees of freedom        ....    3

    -----------------------------------------------------------------
                    Redundant Internal Coordinates


    -----------------------------------------------------------------
         Definition                    Initial Value    Approx d2E/dq
    -----------------------------------------------------------------
      1. B(H   1,C   0)                  1.1094         0.335331   
      2. B(H   2,C   0)                  1.1094         0.335336   
      3. A(H   1,C   0,H   2)          109.4709         0.284433   
    -----------------------------------------------------------------

Number of atoms                         .... 3
Number of degrees of freedom            .... 3

         *************************************************************
         *                GEOMETRY OPTIMIZATION CYCLE   1            *
         *************************************************************
---------------------------------
CARTESIAN COORDINATES (ANGSTROEM)
---------------------------------
  C      0.263990   -0.464770   -0.000000
  H     -0.687240    0.106130    0.000000
  H      1.119310    0.241760   -0.000000

----------------------------
CARTESIAN COORDINATES (A.U.)
----------------------------
  NO LB      ZA    FRAG     MASS         X           Y           Z
   0 C     6.0000    0    12.011    0.498869   -0.878288   -0.000000
   1 H     1.0000    0     1.008   -1.298695    0.200557    0.000000
   2 H     1.0000    0     1.008    2.115189    0.456860   -0.000000

--------------------------------
INTERNAL COORDINATES (ANGSTROEM)
--------------------------------
 C      0   0   0     0.000000000000     0.00000000     0.00000000
 H      1   0   0     1.109398631196     0.00000000     0.00000000
 H      1   2   0     1.109394854549   109.47094193     0.00000000

---------------------------
INTERNAL COORDINATES (A.U.)
---------------------------
 C      0   0   0     0.000000000000     0.00000000     0.00000000
 H      1   0   0     2.096459586308     0.00000000     0.00000000
 H      1   2   0     2.096452449479   109.47094193     0.00000000

---------------------
BASIS SET INFORMATION
---------------------
There are 2 groups of distinct atoms

 Group   1 Type C   : 11s5p contracted to 4s3p pattern {6311/311}
 Group   2 Type H   : 5s contracted to 3s pattern {311}

Atom   0C    basis set group =>   1
Atom   1H    basis set group =>   2
Atom   2H    basis set group =>   2
------------------------------------------------------------------------------
                           ORCA GTO INTEGRAL CALCULATION
------------------------------------------------------------------------------

                         BASIS SET STATISTICS AND STARTUP INFO

 # of primitive gaussian shells          ...   26
 # of primitive gaussian functions       ...   36
 # of contracted shells                  ...   13
 # of contracted basis functions         ...   19
 Highest angular momentum                ...    1
 Maximum contraction depth               ...    6
 Integral package used                   ... LIBINT
 Integral threshhold            Thresh   ...  2.500e-11
 Primitive cut-off              TCut     ...  2.500e-12


------------------------------ INTEGRAL EVALUATION ----------------------------


 * One electron integrals 
 Pre-screening matrix                    ... done
 Shell pair data                         ... done (   0.000 sec)

-------------------------------------------------------------------------------
                                 ORCA SCF
-------------------------------------------------------------------------------

------------
SCF SETTINGS
------------
Hamiltonian:
 Ab initio Hamiltonian  Method          .... Hartree-Fock(GTOs)


General Settings:
 Integral files         IntName         .... orca
 Hartree-Fock type      HFTyp           .... RHF
 Total Charge           Charge          ....    0
 Multiplicity           Mult            ....    1
 Number of Electrons    NEL             ....    8
 Basis Dimension        Dim             ....   19
 Nuclear Repulsion      ENuc            ....      6.0160448782 Eh

Convergence Acceleration:
 DIIS                   CNVDIIS         .... on
   Start iteration      DIISMaxIt       ....    12
   Startup error        DIISStart       ....  0.200000
   # of expansion vecs  DIISMaxEq       ....     5
   Bias factor          DIISBfac        ....   1.050
   Max. coefficient     DIISMaxC        ....  10.000
 Newton-Raphson         CNVNR           .... off
 SOSCF                  CNVSOSCF        .... on
   Start iteration      SOSCFMaxIt      ....   150
   Startup grad/error   SOSCFStart      ....  0.003300
 Level Shifting         CNVShift        .... on
   Level shift para.    LevelShift      ....    0.2500
   Turn off err/grad.   ShiftErr        ....    0.0010
 Zerner damping         CNVZerner       .... off
 Static damping         CNVDamp         .... on
   Fraction old density DampFac         ....    0.7000
   Max. Damping (<1)    DampMax         ....    0.9800
   Min. Damping (>=0)   DampMin         ....    0.0000
   Turn off err/grad.   DampErr         ....    0.1000
 Fernandez-Rico         CNVRico         .... off

SCF Procedure:
 Maximum # iterations   MaxIter         ....   125
 SCF integral mode      SCFMode         .... Direct
   Integral package                     .... LIBINT
 Reset frequency        DirectResetFreq ....    20
 Integral Threshold     Thresh          ....  2.500e-11 Eh
 Primitive CutOff       TCut            ....  2.500e-12 Eh

Convergence Tolerance:
 Convergence Check Mode ConvCheckMode   .... Total+1el-Energy
 Convergence forced     ConvForced      .... 0
 Energy Change          TolE            ....  1.000e-08 Eh
 1-El. energy change                    ....  1.000e-05 Eh
 Orbital Gradient       TolG            ....  1.000e-05
 Orbital Rotation angle TolX            ....  1.000e-05
 DIIS Error             TolErr          ....  5.000e-07


Diagonalization of the overlap matrix:
Smallest eigenvalue                        ... 3.754e-02
Time for diagonalization                   ...    0.045 sec
Threshold for overlap eigenvalues          ... 1.000e-08
Number of eigenvalues below threshold      ... 0
Time for construction of square roots      ...    0.018 sec
Total time needed                          ...    0.063 sec

-------------------
DFT GRID GENERATION
-------------------

General Integration Accuracy     IntAcc      ...  4.340
Radial Grid Type                 RadialGrid  ... Gauss-Chebyshev
Angular Grid (max. acc.)         AngularGrid ... Lebedev-110
Angular grid pruning method      GridPruning ... 3 (G Style)
Weight generation scheme         WeightScheme... Becke
Basis function cutoff            BFCut       ...    1.0000e-11
Integration weight cutoff        WCut        ...    1.0000e-14
Grids for H and He will be reduced by one unit

# of grid points (after initial pruning)     ...   3244 (   0.0 sec)
# of grid points (after weights+screening)   ...   3204 (   0.0 sec)
nearest neighbour list constructed           ...    0.0 sec
Grid point re-assignment to atoms done       ...    0.0 sec
Grid point division into batches done        ...    0.0 sec
Reduced shell lists constructed in    0.0 sec

Total number of grid points                  ...     3204
Total number of batches                      ...       52
Average number of points per batch           ...       61
Average number of grid points per atom       ...     1068
Average number of shells per batch           ...    12.06 (92.74%)
Average number of basis functions per batch  ...    17.60 (92.65%)
Average number of large shells per batch     ...    11.34 (94.05%)
Average number of large basis fcns per batch ...    16.70 (94.86%)
Maximum spatial batch extension              ...  16.14, 25.60, 31.36 au
Average spatial batch extension              ...   4.98,  7.31,  6.65 au

Time for grid setup =    0.008 sec

------------------------------
INITIAL GUESS: MODEL POTENTIAL
------------------------------
Loading Hartree-Fock densities                     ... done
Calculating cut-offs                               ... done
Setting up the integral package                    ... done
Initializing the effective Hamiltonian             ... done
Starting the Coulomb interaction                   ... done (   0.0 sec)
Reading the grid                                   ... done
Mapping shells                                     ... done
Starting the XC term evaluation                    ... done (   0.0 sec)
Transforming the Hamiltonian                       ... done (   0.0 sec)
Diagonalizing the Hamiltonian                      ... done (   0.0 sec)
Back transforming the eigenvectors                 ... done (   0.0 sec)
Now organizing SCF variables                       ... done
                      ------------------
                      INITIAL GUESS DONE (   0.1 sec)
                      ------------------
--------------
SCF ITERATIONS
--------------
ITER       Energy         Delta-E        Max-DP      RMS-DP      [F,P]     Damp
               ***  Starting incremental Fock matrix formation  ***
  0    -38.8435700334   0.000000000000 0.02620758  0.00273088  0.1418013 0.7000
  1    -38.8501674864  -0.006597452926 0.01874335  0.00219792  0.0976899 0.7000
                               ***Turning on DIIS***
  2    -38.8545343937  -0.004366907323 0.03516525  0.00488408  0.0685260 0.0000
  3    -38.8490328381   0.005501555585 0.02118083  0.00173540  0.0132417 0.0000
                      *** Initiating the SOSCF procedure ***
                           *** Shutting down DIIS ***
                      *** Re-Reading the Fockian *** 
                      *** Removing any level shift *** 
ITER      Energy       Delta-E        Grad      Rot      Max-DP    RMS-DP
  4    -38.86406384  -0.0150310005  0.001365  0.001365  0.004091  0.000361
               *** Restarting incremental Fock matrix formation ***
  5    -38.86389740   0.0001664354  0.000354  0.000489  0.001414  0.000137
  6    -38.86389938  -0.0000019726  0.000126  0.000340  0.000828  0.000079
  7    -38.86389967  -0.0000002900  0.000020  0.000045  0.000123  0.000011
  8    -38.86389967  -0.0000000043  0.000007  0.000022  0.000063  0.000006
                 **** Energy Check signals convergence ****
              ***Rediagonalizing the Fockian in SOSCF/NRSCF***

               *****************************************************
               *                     SUCCESS                       *
               *           SCF CONVERGED AFTER   9 CYCLES          *
               *****************************************************


----------------
TOTAL SCF ENERGY
----------------

Total Energy       :          -38.86389967 Eh           -1057.54047 eV

Components:
Nuclear Repulsion  :            6.01604488 Eh             163.70490 eV
Electronic Energy  :          -44.87994455 Eh           -1221.24538 eV
One Electron Energy:          -63.47612343 Eh           -1727.27313 eV
Two Electron Energy:           18.59617888 Eh             506.02775 eV

Virial components:
Potential Energy   :          -77.74013138 Eh           -2115.41652 eV
Kinetic Energy     :           38.87623171 Eh            1057.87605 eV
Virial Ratio       :            1.99968279


---------------
SCF CONVERGENCE
---------------

  Last Energy change         ...   -6.8866e-10  Tolerance :   1.0000e-08
  Last MAX-Density change    ...    4.9730e-06  Tolerance :   1.0000e-07
  Last RMS-Density change    ...    4.5868e-07  Tolerance :   5.0000e-09
  Last Orbital Gradient      ...    1.9936e-06  Tolerance :   1.0000e-05
  Last Orbital Rotation      ...    2.0842e-06  Tolerance :   1.0000e-05

             **** THE GBW FILE WAS UPDATED (orca.gbw) ****
             **** DENSITY FILE WAS UPDATED (orca.scfp) ****
             **** ENERGY FILE WAS UPDATED (orca.en.tmp) ****
             **** THE GBW FILE WAS UPDATED (orca.gbw) ****
             **** DENSITY FILE WAS UPDATED (orca.scfp) ****
----------------
ORBITAL ENERGIES
----------------

  NO   OCC          E(Eh)            E(eV) 
   0   2.0000     -11.292011      -307.2712 
   1   2.0000      -0.896334       -24.3905 
   2   2.0000      -0.578292       -15.7361 
   3   2.0000      -0.375242       -10.2109 
   4   0.0000       0.056144         1.5277 
   5   0.0000       0.157898         4.2966 
   6   0.0000       0.219388         5.9698 
   7   0.0000       0.446206        12.1419 
   8   0.0000       0.500366        13.6156 
   9   0.0000       0.636306        17.3148 
  10   0.0000       0.646011        17.5789 
  11   0.0000       0.783756        21.3271 
  12   0.0000       0.868087        23.6218 
  13   0.0000       2.458645        66.9031 
  14   0.0000       2.524029        68.6823 
  15   0.0000       2.966423        80.7205 
  16   0.0000       3.110246        84.6341 
  17   0.0000       3.264593        88.8341 
  18   0.0000      24.402750       664.0326 

                    ********************************
                    * MULLIKEN POPULATION ANALYSIS *
                    ********************************

-----------------------
MULLIKEN ATOMIC CHARGES
-----------------------
   0 C :   -0.236840
   1 H :    0.118420
   2 H :    0.118420
Sum of atomic charges:    0.0000000

--------------------------------
MULLIKEN REDUCED ORBITAL CHARGES
--------------------------------
  0 C s       :     3.715292  s :     3.715292
      pz      :     0.000000  p :     2.521548
      px      :     0.950822
      py      :     1.570726
  1 H s       :     0.881580  s :     0.881580
  2 H s       :     0.881580  s :     0.881580


                     *******************************
                     * LOEWDIN POPULATION ANALYSIS *
                     *******************************

----------------------
LOEWDIN ATOMIC CHARGES
----------------------
   0 C :   -0.076865
   1 H :    0.038433
   2 H :    0.038433

-------------------------------
LOEWDIN REDUCED ORBITAL CHARGES
-------------------------------
  0 C s       :     3.407118  s :     3.407118
      pz      :     0.000000  p :     2.669747
      px      :     1.050205
      py      :     1.619542
  1 H s       :     0.961567  s :     0.961567
  2 H s       :     0.961567  s :     0.961567


                      *****************************
                      * MAYER POPULATION ANALYSIS *
                      *****************************

  NA   - Mulliken gross atomic population
  ZA   - Total nuclear charge
  QA   - Mulliken gross atomic charge
  VA   - Mayer's total valence
  BVA  - Mayer's bonded valence
  FA   - Mayer's free valence

  ATOM       NA         ZA         QA         VA         BVA        FA
  0 C      6.2368     6.0000    -0.2368     1.8553     1.8553     0.0000
  1 H      0.8816     1.0000     0.1184     0.9273     0.9273    -0.0000
  2 H      0.8816     1.0000     0.1184     0.9273     0.9273    -0.0000

  Mayer bond orders larger than 0.100000
B(  0-C ,  1-H ) :   0.9277 B(  0-C ,  2-H ) :   0.9277 

-------
TIMINGS
-------

Total SCF time: 0 days 0 hours 0 min 0 sec 

Total time                  ....       0.940 sec
Sum of individual times     ....       0.697 sec  ( 74.2%)

Fock matrix formation       ....       0.594 sec  ( 63.2%)
Diagonalization             ....       0.000 sec  (  0.0%)
Density matrix formation    ....       0.000 sec  (  0.0%)
Population analysis         ....       0.001 sec  (  0.1%)
Initial guess               ....       0.093 sec  (  9.9%)
Orbital Transformation      ....       0.000 sec  (  0.0%)
Orbital Orthonormalization  ....       0.000 sec  (  0.0%)
DIIS solution               ....       0.000 sec  (  0.0%)
SOSCF solution              ....       0.001 sec  (  0.1%)

-------------------------   --------------------
FINAL SINGLE POINT ENERGY       -38.863899670914
-------------------------   --------------------

------------------------------------------------------------------------------
                         ORCA SCF GRADIENT CALCULATION
------------------------------------------------------------------------------

Gradient of the Hartree-Fock SCF energy:
Hartree-Fock type                ... RHF
Number of operators              ...    1
Number of atoms                  ...    3
Basis set dimensions             ...   19
Integral neglect threshold       ... 2.5e-11
Integral primitive cutoff        ... 2.5e-12

Nuclear repulsion gradient       ... done
One Electron Gradient            ... done
Pre-screening matrix             ... done
Starting the two electron gradient:
Two electron gradient done

------------------
CARTESIAN GRADIENT
------------------

   1   C   :   -0.000096672    0.001312175   -0.000000000
   2   H   :   -0.008741593   -0.001315348    0.000000000
   3   H   :    0.008838265    0.000003173    0.000000000

Difference to translation invariance:
           :   -0.0000000000    0.0000000000   -0.0000000000

Norm of the cartesian gradient     ...    0.0125694736
RMS gradient                       ...    0.0041898245
MAX gradient                       ...    0.0088382646

-------
TIMINGS
-------

Total SCF gradient time            ...        0.133 sec

One electron gradient       ....       0.001 sec  (  0.7%)
Prescreening matrices       ....       0.001 sec  (  0.6%)
Two electron gradient       ....       0.010 sec  (  7.3%)
------------------------------------------------------------------------------
                         ORCA GEOMETRY RELAXATION STEP
------------------------------------------------------------------------------

Reading the OPT-File                    .... done
Getting information on internals        .... done
Copying old internal coords+grads       .... done
Making the new internal coordinates     .... (new redundants).... done
Validating the new internal coordinates .... (new redundants).... done
Calculating the B-matrix                .... done
Calculating the G,G- and P matrices     .... done
Transforming gradient to internals      .... done
Projecting the internal gradient        .... done
Number of atoms                         ....   3
Number of internal coordinates          ....   3
Current Energy                          ....   -38.863899671 Eh
Current gradient norm                   ....     0.012569474 Eh/bohr
Maximum allowed component of the step   ....  0.300
Current trust radius                    ....  0.300
Evaluating the initial hessian          ....  (Almloef) done
Projecting the Hessian                  .... done
Forming the augmented Hessian           .... done
Diagonalizing the augmented Hessian     .... done
Last element of RFO vector              ....  0.998735725
Lowest eigenvalues of augmented Hessian:
 -0.000764389  0.284917943  0.335333415
Length of the computed step             ....  0.050332424
The final length of the internal step   ....  0.050332424
Converting the step to cartesian space:
 Initial RMS(Int)=    0.0290594387
Transforming coordinates:
 Iter   0:  RMS(Cart)=    0.0206390030 RMS(Int)=    0.0290408995
 Iter   1:  RMS(Cart)=    0.0001746915 RMS(Int)=    0.0004395168
 Iter   2:  RMS(Cart)=    0.0000048121 RMS(Int)=    0.0000076031
 Iter   3:  RMS(Cart)=    0.0000000722 RMS(Int)=    0.0000001617
done
Storing new coordinates                 .... done

                                .--------------------.
          ----------------------|Geometry convergence|-------------------------
          Item                value                   Tolerance       Converged
          ---------------------------------------------------------------------
          RMS gradient        0.0087954235            0.0001000000      NO
          MAX gradient        0.0117952540            0.0003000000      NO
          RMS step            0.0290594387            0.0020000000      NO
          MAX step            0.0413582446            0.0040000000      NO
          ........................................................
          Max(Bonds)      0.0107      Max(Angles)    2.37
          Max(Dihed)        0.00      Max(Improp)    0.00
          ---------------------------------------------------------------------

The optimization has not yet converged - more geometry cycles are needed


    ---------------------------------------------------------------------------
                         Redundant Internal Coordinates
                            (Angstroem and degrees)

        Definition                    Value    dE/dq     Step     New-Value
    ----------------------------------------------------------------------------
     1. B(H   1,C   0)                1.1094  0.006818 -0.0107    1.0987   
     2. B(H   2,C   0)                1.1094  0.006816 -0.0107    1.0987   
     3. A(H   1,C   0,H   2)          109.47  0.011795   -2.37    107.10   
    ----------------------------------------------------------------------------

         *************************************************************
         *                GEOMETRY OPTIMIZATION CYCLE   2            *
         *************************************************************
---------------------------------
CARTESIAN COORDINATES (ANGSTROEM)
---------------------------------
  C      0.264598   -0.472891    0.000000
  H     -0.665534    0.111843    0.000000
  H      1.096996    0.244169    0.000000

----------------------------
CARTESIAN COORDINATES (A.U.)
----------------------------
  NO LB      ZA    FRAG     MASS         X           Y           Z
   0 C     6.0000    0    12.011    0.500019   -0.893635    0.000000
   1 H     1.0000    0     1.008   -1.257677    0.211352    0.000000
   2 H     1.0000    0     1.008    2.073022    0.461412    0.000000

--------------------------------
INTERNAL COORDINATES (ANGSTROEM)
--------------------------------
 C      0   0   0     0.000000000000     0.00000000     0.00000000
 H      1   0   0     1.098663157102     0.00000000     0.00000000
 H      1   2   0     1.098663100679   107.10128908     0.00000000

---------------------------
INTERNAL COORDINATES (A.U.)
---------------------------
 C      0   0   0     0.000000000000     0.00000000     0.00000000
 H      1   0   0     2.076172480351     0.00000000     0.00000000
 H      1   2   0     2.076172373729   107.10128908     0.00000000


Diagonalization of the overlap matrix:
Smallest eigenvalue                        ... 3.598e-02
Time for diagonalization                   ...    0.000 sec
Threshold for overlap eigenvalues          ... 1.000e-08
Number of eigenvalues below threshold      ... 0
Time for construction of square roots      ...    0.000 sec
Total time needed                          ...    0.000 sec

--------------
SCF ITERATIONS
--------------
ITER       Energy         Delta-E        Max-DP      RMS-DP      [F,P]     Damp
               ***  Starting incremental Fock matrix formation  ***
  0    -38.8642579232   0.000000000000 0.00144653  0.00015037  0.0069430 0.7000
                      *** Initiating the SOSCF procedure ***
                      *** Re-Reading the Fockian *** 
                      *** Removing any level shift *** 
ITER      Energy       Delta-E        Grad      Rot      Max-DP    RMS-DP
  1    -38.86427842  -0.0000205001  0.000806  0.000806  0.004695  0.000479
               *** Restarting incremental Fock matrix formation ***
  2    -38.86433696  -0.0000585330  0.000788  0.000887  0.002303  0.000230
  3    -38.86434099  -0.0000040322  0.000272  0.000464  0.000810  0.000107
  4    -38.86434146  -0.0000004736  0.000029  0.000043  0.000092  0.000009
  5    -38.86434147  -0.0000000096  0.000011  0.000029  0.000070  0.000007
  6    -38.86434147  -0.0000000015  0.000004  0.000008  0.000026  0.000002
                 **** Energy Check signals convergence ****
              ***Rediagonalizing the Fockian in SOSCF/NRSCF***

               *****************************************************
               *                     SUCCESS                       *
               *           SCF CONVERGED AFTER   7 CYCLES          *
               *****************************************************

Total Energy       :          -38.86434147 Eh           -1057.55250 eV
  Last Energy change         ...   -1.0029e-10  Tolerance :   1.0000e-08
  Last MAX-Density change    ...    3.2841e-06  Tolerance :   1.0000e-07
             **** THE GBW FILE WAS UPDATED (orca.gbw) ****
             **** DENSITY FILE WAS UPDATED (orca.scfp) ****
             **** ENERGY FILE WAS UPDATED (orca.en.tmp) ****
             **** THE GBW FILE WAS UPDATED (orca.gbw) ****
             **** DENSITY FILE WAS UPDATED (orca.scfp) ****
Total SCF time: 0 days 0 hours 0 min 0 sec 

-------------------------   --------------------
FINAL SINGLE POINT ENERGY       -38.864341473239
-------------------------   --------------------

------------------------------------------------------------------------------
                         ORCA SCF GRADIENT CALCULATION
------------------------------------------------------------------------------

Gradient of the Hartree-Fock SCF energy:
Hartree-Fock type                ... RHF
Number of operators              ...    1
Number of atoms                  ...    3
Basis set dimensions             ...   19
Integral neglect threshold       ... 2.5e-11
Integral primitive cutoff        ... 2.5e-12

Nuclear repulsion gradient       ... done
One Electron Gradient            ... done
Pre-screening matrix             ... done
Starting the two electron gradient:
Two electron gradient done

------------------
CARTESIAN GRADIENT
------------------

   1   C   :   -0.000308664    0.004111667   -0.000000000
   2   H   :   -0.000092754   -0.002074373    0.000000000
   3   H   :    0.000401418   -0.002037294    0.000000000

Difference to translation invariance:
           :    0.0000000000   -0.0000000000   -0.0000000000

Norm of the cartesian gradient     ...    0.0050620560
RMS gradient                       ...    0.0016873520
MAX gradient                       ...    0.0041116672

-------
TIMINGS
-------

Total SCF gradient time            ...        0.109 sec

One electron gradient       ....       0.001 sec  (  0.7%)
Prescreening matrices       ....       0.001 sec  (  0.7%)
Two electron gradient       ....       0.008 sec  (  7.4%)
------------------------------------------------------------------------------
                         ORCA GEOMETRY RELAXATION STEP
------------------------------------------------------------------------------

Reading the OPT-File                    .... done
Getting information on internals        .... done
Copying old internal coords+grads       .... done
Making the new internal coordinates     .... (new redundants).... done
Validating the new internal coordinates .... (new redundants).... done
Calculating the B-matrix                .... done
Calculating the G,G- and P matrices     .... done
Transforming gradient to internals      .... done
Projecting the internal gradient        .... done
Number of atoms                         ....   3
Number of internal coordinates          ....   3
Current Energy                          ....   -38.864341473 Eh
Current gradient norm                   ....     0.005062056 Eh/bohr
Maximum allowed component of the step   ....  0.300
Current trust radius                    ....  0.300
Updating the Hessian (BFGS)             .... done
Forming the augmented Hessian           .... done
Diagonalizing the augmented Hessian     .... done
Last element of RFO vector              ....  0.999827081
Lowest eigenvalues of augmented Hessian:
 -0.000073228  0.201832988  0.335333434
Length of the computed step             ....  0.018599145
The final length of the internal step   ....  0.018599145
Converting the step to cartesian space:
 Initial RMS(Int)=    0.0107382216
Transforming coordinates:
 Iter   0:  RMS(Cart)=    0.0063828258 RMS(Int)=    0.0107390222
 Iter   1:  RMS(Cart)=    0.0000399872 RMS(Int)=    0.0000720330
 Iter   2:  RMS(Cart)=    0.0000002475 RMS(Int)=    0.0000004596
 Iter   3:  RMS(Cart)=    0.0000000035 RMS(Int)=    0.0000000060
done
Storing new coordinates                 .... done

                                .--------------------.
          ----------------------|Geometry convergence|-------------------------
          Item                value                   Tolerance       Converged
          ---------------------------------------------------------------------
          Energy change      -0.0004418023            0.0000050000      NO
          RMS gradient        0.0023205936            0.0001000000      NO
          MAX gradient        0.0037486094            0.0003000000      NO
          RMS step            0.0107382216            0.0020000000      NO
          MAX step            0.0183416938            0.0040000000      NO
          ........................................................
          Max(Bonds)      0.0012      Max(Angles)    1.05
          Max(Dihed)        0.00      Max(Improp)    0.00
          ---------------------------------------------------------------------

The optimization has not yet converged - more geometry cycles are needed


    ---------------------------------------------------------------------------
                         Redundant Internal Coordinates
                            (Angstroem and degrees)

        Definition                    Value    dE/dq     Step     New-Value
    ----------------------------------------------------------------------------
     1. B(H   1,C   0)                1.0987 -0.001026  0.0012    1.0998   
     2. B(H   2,C   0)                1.0987 -0.001026  0.0012    1.0998   
     3. A(H   1,C   0,H   2)          107.10  0.003749   -1.05    106.05   
    ----------------------------------------------------------------------------

         *************************************************************
         *                GEOMETRY OPTIMIZATION CYCLE   3            *
         *************************************************************
---------------------------------
CARTESIAN COORDINATES (ANGSTROEM)
---------------------------------
  C      0.265036   -0.478722    0.000000
  H     -0.660666    0.115140    0.000000
  H      1.091690    0.246702    0.000000

----------------------------
CARTESIAN COORDINATES (A.U.)
----------------------------
  NO LB      ZA    FRAG     MASS         X           Y           Z
   0 C     6.0000    0    12.011    0.500846   -0.904654    0.000000
   1 H     1.0000    0     1.008   -1.248478    0.217583    0.000000
   2 H     1.0000    0     1.008    2.062995    0.466200    0.000000

--------------------------------
INTERNAL COORDINATES (ANGSTROEM)
--------------------------------
 C      0   0   0     0.000000000000     0.00000000     0.00000000
 H      1   0   0     1.099816958857     0.00000000     0.00000000
 H      1   2   0     1.099817200893   106.05038744     0.00000000

---------------------------
INTERNAL COORDINATES (A.U.)
---------------------------
 C      0   0   0     0.000000000000     0.00000000     0.00000000
 H      1   0   0     2.078352849681     0.00000000     0.00000000
 H      1   2   0     2.078353307064   106.05038744     0.00000000


Diagonalization of the overlap matrix:
Smallest eigenvalue                        ... 3.575e-02
Time for diagonalization                   ...    0.000 sec
Threshold for overlap eigenvalues          ... 1.000e-08
Number of eigenvalues below threshold      ... 0
Time for construction of square roots      ...    0.000 sec
Total time needed                          ...    0.000 sec

--------------
SCF ITERATIONS
--------------
ITER       Energy         Delta-E        Max-DP      RMS-DP      [F,P]     Damp
               ***  Starting incremental Fock matrix formation  ***
                      *** Initiating the SOSCF procedure ***
                      *** Re-Reading the Fockian *** 
                      *** Removing any level shift *** 
ITER      Energy       Delta-E        Grad      Rot      Max-DP    RMS-DP
  0    -38.86437384 -38.8643738435  0.001396  0.001396  0.002471  0.000245
               *** Restarting incremental Fock matrix formation ***
  1    -38.86438446  -0.0000106143  0.000653  0.000731  0.001697  0.000181
  2    -38.86438653  -0.0000020761  0.000223  0.000381  0.001013  0.000106
  3    -38.86438681  -0.0000002776  0.000017  0.000035  0.000051  0.000007
                 **** Energy Check signals convergence ****
              ***Rediagonalizing the Fockian in SOSCF/NRSCF***

               *****************************************************
               *                     SUCCESS                       *
               *           SCF CONVERGED AFTER   4 CYCLES          *
               *****************************************************

Total Energy       :          -38.86438681 Eh           -1057.55373 eV
  Last Energy change         ...   -2.5793e-09  Tolerance :   1.0000e-08
  Last MAX-Density change    ...    2.4893e-05  Tolerance :   1.0000e-07
             **** THE GBW FILE WAS UPDATED (orca.gbw) ****
             **** DENSITY FILE WAS UPDATED (orca.scfp) ****
             **** ENERGY FILE WAS UPDATED (orca.en.tmp) ****
             **** THE GBW FILE WAS UPDATED (orca.gbw) ****
             **** DENSITY FILE WAS UPDATED (orca.scfp) ****
Total SCF time: 0 days 0 hours 0 min 0 sec 

-------------------------   --------------------
FINAL SINGLE POINT ENERGY       -38.864386814091
-------------------------   --------------------

------------------------------------------------------------------------------
                         ORCA SCF GRADIENT CALCULATION
------------------------------------------------------------------------------

Gradient of the Hartree-Fock SCF energy:
Hartree-Fock type                ... RHF
Number of operators              ...    1
Number of atoms                  ...    3
Basis set dimensions             ...   19
Integral neglect threshold       ... 2.5e-11
Integral primitive cutoff        ... 2.5e-12

Nuclear repulsion gradient       ... done
One Electron Gradient            ... done
Pre-screening matrix             ... done
Starting the two electron gradient:
Two electron gradient done

------------------
CARTESIAN GRADIENT
------------------

   1   C   :   -0.000119037    0.001583895   -0.000000000
   2   H   :    0.000521330   -0.000757322    0.000000000
   3   H   :   -0.000402293   -0.000826573    0.000000000

Difference to translation invariance:
           :    0.0000000000   -0.0000000000   -0.0000000000

Norm of the cartesian gradient     ...    0.0020526267
RMS gradient                       ...    0.0006842089
MAX gradient                       ...    0.0015838947

-------
TIMINGS
-------

Total SCF gradient time            ...        0.109 sec

One electron gradient       ....       0.001 sec  (  0.7%)
Prescreening matrices       ....       0.001 sec  (  0.6%)
Two electron gradient       ....       0.008 sec  (  7.3%)
------------------------------------------------------------------------------
                         ORCA GEOMETRY RELAXATION STEP
------------------------------------------------------------------------------

Reading the OPT-File                    .... done
Getting information on internals        .... done
Copying old internal coords+grads       .... done
Making the new internal coordinates     .... (new redundants).... done
Validating the new internal coordinates .... (new redundants).... done
Calculating the B-matrix                .... done
Calculating the G,G- and P matrices     .... done
Transforming gradient to internals      .... done
Projecting the internal gradient        .... done
Number of atoms                         ....   3
Number of internal coordinates          ....   3
Current Energy                          ....   -38.864386814 Eh
Current gradient norm                   ....     0.002052627 Eh/bohr
Maximum allowed component of the step   ....  0.300
Current trust radius                    ....  0.300
Updating the Hessian (BFGS)             .... done
Forming the augmented Hessian           .... done
Diagonalizing the augmented Hessian     .... done
Last element of RFO vector              ....  0.999977733
Lowest eigenvalues of augmented Hessian:
 -0.000008685  0.160975270  0.335333434
Length of the computed step             ....  0.006673440
The final length of the internal step   ....  0.006673440
Converting the step to cartesian space:
 Initial RMS(Int)=    0.0038529125
Transforming coordinates:
 Iter   0:  RMS(Cart)=    0.0017640962 RMS(Int)=    0.0038531821
 Iter   1:  RMS(Cart)=    0.0000049953 RMS(Int)=    0.0000074546
 Iter   2:  RMS(Cart)=    0.0000000073 RMS(Int)=    0.0000000175
done
Storing new coordinates                 .... done

                                .--------------------.
          ----------------------|Geometry convergence|-------------------------
          Item                value                   Tolerance       Converged
          ---------------------------------------------------------------------
          Energy change      -0.0000453409            0.0000050000      NO
          RMS gradient        0.0008132725            0.0001000000      NO
          MAX gradient        0.0008477246            0.0003000000      NO
          RMS step            0.0038529125            0.0020000000      NO
          MAX step            0.0054112093            0.0040000000      NO
          ........................................................
          Max(Bonds)      0.0015      Max(Angles)    0.31
          Max(Dihed)        0.00      Max(Improp)    0.00
          ---------------------------------------------------------------------

The optimization has not yet converged - more geometry cycles are needed


    ---------------------------------------------------------------------------
                         Redundant Internal Coordinates
                            (Angstroem and degrees)

        Definition                    Value    dE/dq     Step     New-Value
    ----------------------------------------------------------------------------
     1. B(H   1,C   0)                1.0998 -0.000848  0.0015    1.1013   
     2. B(H   2,C   0)                1.0998 -0.000848  0.0015    1.1013   
     3. A(H   1,C   0,H   2)          106.05  0.000740   -0.31    105.74   
    ----------------------------------------------------------------------------

         *************************************************************
         *                GEOMETRY OPTIMIZATION CYCLE   4            *
         *************************************************************
---------------------------------
CARTESIAN COORDINATES (ANGSTROEM)
---------------------------------
  C      0.265199   -0.480888    0.000000
  H     -0.660121    0.116270    0.000000
  H      1.090983    0.247738    0.000000

----------------------------
CARTESIAN COORDINATES (A.U.)
----------------------------
  NO LB      ZA    FRAG     MASS         X           Y           Z
   0 C     6.0000    0    12.011    0.501153   -0.908746    0.000000
   1 H     1.0000    0     1.008   -1.247449    0.219718    0.000000
   2 H     1.0000    0     1.008    2.061658    0.468157    0.000000

--------------------------------
INTERNAL COORDINATES (ANGSTROEM)
--------------------------------
 C      0   0   0     0.000000000000     0.00000000     0.00000000
 H      1   0   0     1.101278477020     0.00000000     0.00000000
 H      1   2   0     1.101278505992   105.74034798     0.00000000

---------------------------
INTERNAL COORDINATES (A.U.)
---------------------------
 C      0   0   0     0.000000000000     0.00000000     0.00000000
 H      1   0   0     2.081114718750     0.00000000     0.00000000
 H      1   2   0     2.081114773499   105.74034798     0.00000000


Diagonalization of the overlap matrix:
Smallest eigenvalue                        ... 3.576e-02
Time for diagonalization                   ...    0.000 sec
Threshold for overlap eigenvalues          ... 1.000e-08
Number of eigenvalues below threshold      ... 0
Time for construction of square roots      ...    0.000 sec
Total time needed                          ...    0.000 sec

--------------
SCF ITERATIONS
--------------
ITER       Energy         Delta-E        Max-DP      RMS-DP      [F,P]     Damp
               ***  Starting incremental Fock matrix formation  ***
                      *** Initiating the SOSCF procedure ***
                      *** Re-Reading the Fockian *** 
                      *** Removing any level shift *** 
ITER      Energy       Delta-E        Grad      Rot      Max-DP    RMS-DP
  0    -38.86438897 -38.8643889708  0.000650  0.000650  0.001033  0.000096
               *** Restarting incremental Fock matrix formation ***
  1    -38.86439095  -0.0000019777  0.000210  0.000234  0.000561  0.000065
  2    -38.86439128  -0.0000003271  0.000074  0.000134  0.000385  0.000043
  3    -38.86439133  -0.0000000504  0.000010  0.000021  0.000026  0.000004
                 **** Energy Check signals convergence ****
              ***Rediagonalizing the Fockian in SOSCF/NRSCF***

               *****************************************************
               *                     SUCCESS                       *
               *           SCF CONVERGED AFTER   4 CYCLES          *
               *****************************************************

Total Energy       :          -38.86439133 Eh           -1057.55385 eV
  Last Energy change         ...   -8.0413e-10  Tolerance :   1.0000e-08
  Last MAX-Density change    ...    1.3915e-05  Tolerance :   1.0000e-07
             **** THE GBW FILE WAS UPDATED (orca.gbw) ****
             **** DENSITY FILE WAS UPDATED (orca.scfp) ****
             **** ENERGY FILE WAS UPDATED (orca.en.tmp) ****
             **** THE GBW FILE WAS UPDATED (orca.gbw) ****
             **** DENSITY FILE WAS UPDATED (orca.scfp) ****
Total SCF time: 0 days 0 hours 0 min 0 sec 

-------------------------   --------------------
FINAL SINGLE POINT ENERGY       -38.864391326821
-------------------------   --------------------

------------------------------------------------------------------------------
                         ORCA SCF GRADIENT CALCULATION
------------------------------------------------------------------------------

Gradient of the Hartree-Fock SCF energy:
Hartree-Fock type                ... RHF
Number of operators              ...    1
Number of atoms                  ...    3
Basis set dimensions             ...   19
Integral neglect threshold       ... 2.5e-11
Integral primitive cutoff        ... 2.5e-12

Nuclear repulsion gradient       ... done
One Electron Gradient            ... done
Pre-screening matrix             ... done
Starting the two electron gradient:
Two electron gradient done

------------------
CARTESIAN GRADIENT
------------------

   1   C   :   -0.000006427    0.000085418   -0.000000000
   2   H   :    0.000083310   -0.000036701    0.000000000
   3   H   :   -0.000076882   -0.000048717    0.000000000

Difference to translation invariance:
           :    0.0000000000   -0.0000000000   -0.0000000000

Norm of the cartesian gradient     ...    0.0001546263
RMS gradient                       ...    0.0000515421
MAX gradient                       ...    0.0000854182

-------
TIMINGS
-------

Total SCF gradient time            ...        0.108 sec

One electron gradient       ....       0.001 sec  (  0.7%)
Prescreening matrices       ....       0.001 sec  (  0.6%)
Two electron gradient       ....       0.008 sec  (  7.4%)
------------------------------------------------------------------------------
                         ORCA GEOMETRY RELAXATION STEP
------------------------------------------------------------------------------

Reading the OPT-File                    .... done
Getting information on internals        .... done
Copying old internal coords+grads       .... done
Making the new internal coordinates     .... (new redundants).... done
Validating the new internal coordinates .... (new redundants).... done
Calculating the B-matrix                .... done
Calculating the G,G- and P matrices     .... done
Transforming gradient to internals      .... done
Projecting the internal gradient        .... done
Number of atoms                         ....   3
Number of internal coordinates          ....   3
Current Energy                          ....   -38.864391327 Eh
Current gradient norm                   ....     0.000154626 Eh/bohr
Maximum allowed component of the step   ....  0.300
Current trust radius                    ....  0.300
Updating the Hessian (BFGS)             .... done
Forming the augmented Hessian           .... done
Diagonalizing the augmented Hessian     .... done
Last element of RFO vector              ....  0.999999935
Lowest eigenvalues of augmented Hessian:
 -0.000000047  0.165034774  0.335333434
Length of the computed step             ....  0.000361814
The final length of the internal step   ....  0.000361814
Converting the step to cartesian space:
 Initial RMS(Int)=    0.0002088934
Transforming coordinates:
 Iter   0:  RMS(Cart)=    0.0001162163 RMS(Int)=    0.0002088935
 Iter   1:  RMS(Cart)=    0.0000000026 RMS(Int)=    0.0000000044
done
Storing new coordinates                 .... done

                                .--------------------.
          ----------------------|Geometry convergence|-------------------------
          Item                value                   Tolerance       Converged
          ---------------------------------------------------------------------
          Energy change      -0.0000045127            0.0000050000      YES
          RMS gradient        0.0000753897            0.0001000000      YES
          MAX gradient        0.0000898996            0.0003000000      YES
          RMS step            0.0002088934            0.0020000000      YES
          MAX step            0.0002521800            0.0040000000      YES
          ........................................................
          Max(Bonds)      0.0001      Max(Angles)    0.00
          Max(Dihed)        0.00      Max(Improp)    0.00
          ---------------------------------------------------------------------

                    ***********************HURRAY********************
                    ***        THE OPTIMIZATION HAS CONVERGED     ***
                    *************************************************


    ---------------------------------------------------------------------------
                         Redundant Internal Coordinates

                          --- Optimized Parameters ---  
                            (Angstroem and degrees)

        Definition                    OldVal   dE/dq     Step     FinalVal
    ----------------------------------------------------------------------------
     1. B(H   1,C   0)                1.1013 -0.000090  0.0001    1.1014   
     2. B(H   2,C   0)                1.1013 -0.000090  0.0001    1.1014   
     3. A(H   1,C   0,H   2)          105.74 -0.000030    0.00    105.74   
    ----------------------------------------------------------------------------
                 *******************************************************
                 *** FINAL ENERGY EVALUATION AT THE STATIONARY POINT ***
                 ***               (AFTER    4 CYCLES)               ***
                 *******************************************************
---------------------------------
CARTESIAN COORDINATES (ANGSTROEM)
---------------------------------
  C      0.265201   -0.480923    0.000000
  H     -0.660249    0.116278    0.000000
  H      1.091108    0.247765    0.000000

----------------------------
CARTESIAN COORDINATES (A.U.)
----------------------------
  NO LB      ZA    FRAG     MASS         X           Y           Z
   0 C     6.0000    0    12.011    0.501158   -0.908813    0.000000
   1 H     1.0000    0     1.008   -1.247690    0.219734    0.000000
   2 H     1.0000    0     1.008    2.061895    0.468209    0.000000

--------------------------------
INTERNAL COORDINATES (ANGSTROEM)
--------------------------------
 C      0   0   0     0.000000000000     0.00000000     0.00000000
 H      1   0   0     1.101411924952     0.00000000     0.00000000
 H      1   2   0     1.101411927044   105.74385448     0.00000000

---------------------------
INTERNAL COORDINATES (A.U.)
---------------------------
 C      0   0   0     0.000000000000     0.00000000     0.00000000
 H      1   0   0     2.081366898794     0.00000000     0.00000000
 H      1   2   0     2.081366902747   105.74385448     0.00000000

---------------------
BASIS SET INFORMATION
---------------------
There are 2 groups of distinct atoms

 Group   1 Type C   : 11s5p contracted to 4s3p pattern {6311/311}
 Group   2 Type H   : 5s contracted to 3s pattern {311}

Atom   0C    basis set group =>   1
Atom   1H    basis set group =>   2
Atom   2H    basis set group =>   2
------------------------------------------------------------------------------
                           ORCA GTO INTEGRAL CALCULATION
------------------------------------------------------------------------------

                         BASIS SET STATISTICS AND STARTUP INFO

 # of primitive gaussian shells          ...   26
 # of primitive gaussian functions       ...   36
 # of contracted shells                  ...   13
 # of contracted basis functions         ...   19
 Highest angular momentum                ...    1
 Maximum contraction depth               ...    6
 Integral package used                   ... LIBINT
 Integral threshhold            Thresh   ...  2.500e-11
 Primitive cut-off              TCut     ...  2.500e-12


------------------------------ INTEGRAL EVALUATION ----------------------------


 * One electron integrals 
 Pre-screening matrix                    ... done
 Shell pair data                         ... done (   0.000 sec)

-------------------------------------------------------------------------------
                                 ORCA SCF
-------------------------------------------------------------------------------

------------
SCF SETTINGS
------------
Hamiltonian:
 Ab initio Hamiltonian  Method          .... Hartree-Fock(GTOs)


General Settings:
 Integral files         IntName         .... orca
 Hartree-Fock type      HFTyp           .... RHF
 Total Charge           Charge          ....    0
 Multiplicity           Mult            ....    1
 Number of Electrons    NEL             ....    8
 Basis Dimension        Dim             ....   19
 Nuclear Repulsion      ENuc            ....      6.0667466793 Eh

Convergence Acceleration:
 DIIS                   CNVDIIS         .... on
   Start iteration      DIISMaxIt       ....    12
   Startup error        DIISStart       ....  0.200000
   # of expansion vecs  DIISMaxEq       ....     5
   Bias factor          DIISBfac        ....   1.050
   Max. coefficient     DIISMaxC        ....  10.000
 Newton-Raphson         CNVNR           .... off
 SOSCF                  CNVSOSCF        .... on
   Start iteration      SOSCFMaxIt      ....   150
   Startup grad/error   SOSCFStart      ....  0.003300
 Level Shifting         CNVShift        .... on
   Level shift para.    LevelShift      ....    0.2500
   Turn off err/grad.   ShiftErr        ....    0.0010
 Zerner damping         CNVZerner       .... off
 Static damping         CNVDamp         .... on
   Fraction old density DampFac         ....    0.7000
   Max. Damping (<1)    DampMax         ....    0.9800
   Min. Damping (>=0)   DampMin         ....    0.0000
   Turn off err/grad.   DampErr         ....    0.1000
 Fernandez-Rico         CNVRico         .... off

SCF Procedure:
 Maximum # iterations   MaxIter         ....   125
 SCF integral mode      SCFMode         .... Direct
   Integral package                     .... LIBINT
 Reset frequency        DirectResetFreq ....    20
 Integral Threshold     Thresh          ....  2.500e-11 Eh
 Primitive CutOff       TCut            ....  2.500e-12 Eh

Convergence Tolerance:
 Convergence Check Mode ConvCheckMode   .... Total+1el-Energy
 Convergence forced     ConvForced      .... 0
 Energy Change          TolE            ....  1.000e-08 Eh
 1-El. energy change                    ....  1.000e-05 Eh
 Orbital Gradient       TolG            ....  1.000e-05
 Orbital Rotation angle TolX            ....  1.000e-05
 DIIS Error             TolErr          ....  5.000e-07


Diagonalization of the overlap matrix:
Smallest eigenvalue                        ... 3.577e-02
Time for diagonalization                   ...    0.000 sec
Threshold for overlap eigenvalues          ... 1.000e-08
Number of eigenvalues below threshold      ... 0
Time for construction of square roots      ...    0.000 sec
Total time needed                          ...    0.000 sec

---------------------
INITIAL GUESS: MOREAD
---------------------
Guess MOs are being read from file: orca.gbw
Input Geometry matches current geometry (good)
Input basis set matches current basis set (good)
MOs were renormalized
MOs were reorthogonalized (Cholesky)
                      ------------------
                      INITIAL GUESS DONE (   0.0 sec)
                      ------------------
--------------
SCF ITERATIONS
--------------
ITER       Energy         Delta-E        Max-DP      RMS-DP      [F,P]     Damp
               ***  Starting incremental Fock matrix formation  ***
                      *** Initiating the SOSCF procedure ***
                      *** Re-Reading the Fockian *** 
                      *** Removing any level shift *** 
ITER      Energy       Delta-E        Grad      Rot      Max-DP    RMS-DP
  0    -38.86439134 -38.8643913440  0.000045  0.000045  0.000027  0.000004
               *** Restarting incremental Fock matrix formation ***
                 **** Energy Check signals convergence ****
              ***Rediagonalizing the Fockian in SOSCF/NRSCF***

               *****************************************************
               *                     SUCCESS                       *
               *           SCF CONVERGED AFTER   1 CYCLES          *
               *****************************************************


----------------
TOTAL SCF ENERGY
----------------

Total Energy       :          -38.86439135 Eh           -1057.55385 eV

Components:
Nuclear Repulsion  :            6.06674668 Eh             165.08457 eV
Electronic Energy  :          -44.93113803 Eh           -1222.63842 eV
One Electron Energy:          -63.56390476 Eh           -1729.66178 eV
Two Electron Energy:           18.63276673 Eh             507.02336 eV

Virial components:
Potential Energy   :          -77.76897010 Eh           -2116.20126 eV
Kinetic Energy     :           38.90457875 Eh            1058.64741 eV
Virial Ratio       :            1.99896703


---------------
SCF CONVERGENCE
---------------

  Last Energy change         ...   -6.8683e-09  Tolerance :   1.0000e-08
  Last MAX-Density change    ...    1.3882e-05  Tolerance :   1.0000e-07
  Last RMS-Density change    ...    1.9037e-06  Tolerance :   5.0000e-09
  Last Orbital Gradient      ...    8.4946e-06  Tolerance :   1.0000e-05
  Last Orbital Rotation      ...    1.1668e-05  Tolerance :   1.0000e-05

             **** THE GBW FILE WAS UPDATED (orca.gbw) ****
             **** DENSITY FILE WAS UPDATED (orca.scfp) ****
             **** ENERGY FILE WAS UPDATED (orca.en.tmp) ****
             **** THE GBW FILE WAS UPDATED (orca.gbw) ****
             **** DENSITY FILE WAS UPDATED (orca.scfp) ****
----------------
ORBITAL ENERGIES
----------------

  NO   OCC          E(Eh)            E(eV) 
   0   2.0000     -11.291580      -307.2595 
   1   2.0000      -0.902872       -24.5684 
   2   2.0000      -0.574444       -15.6314 
   3   2.0000      -0.380289       -10.3482 
   4   0.0000       0.055719         1.5162 
   5   0.0000       0.157858         4.2955 
   6   0.0000       0.220950         6.0124 
   7   0.0000       0.439986        11.9726 
   8   0.0000       0.514606        14.0031 
   9   0.0000       0.636041        17.3075 
  10   0.0000       0.650157        17.6917 
  11   0.0000       0.784387        21.3443 
  12   0.0000       0.868995        23.6466 
  13   0.0000       2.460256        66.9470 
  14   0.0000       2.528912        68.8152 
  15   0.0000       2.966350        80.7185 
  16   0.0000       3.121755        84.9473 
  17   0.0000       3.251084        88.4665 
  18   0.0000      24.405280       664.1014 

                    ********************************
                    * MULLIKEN POPULATION ANALYSIS *
                    ********************************

-----------------------
MULLIKEN ATOMIC CHARGES
-----------------------
   0 C :   -0.226042
   1 H :    0.113021
   2 H :    0.113021
Sum of atomic charges:    0.0000000

--------------------------------
MULLIKEN REDUCED ORBITAL CHARGES
--------------------------------
  0 C s       :     3.723253  s :     3.723253
      pz      :     0.000000  p :     2.502789
      px      :     0.955779
      py      :     1.547010
  1 H s       :     0.886979  s :     0.886979
  2 H s       :     0.886979  s :     0.886979


                     *******************************
                     * LOEWDIN POPULATION ANALYSIS *
                     *******************************

----------------------
LOEWDIN ATOMIC CHARGES
----------------------
   0 C :   -0.068384
   1 H :    0.034192
   2 H :    0.034192

-------------------------------
LOEWDIN REDUCED ORBITAL CHARGES
-------------------------------
  0 C s       :     3.411497  s :     3.411497
      pz      :     0.000000  p :     2.656887
      px      :     1.054457
      py      :     1.602430
  1 H s       :     0.965808  s :     0.965808
  2 H s       :     0.965808  s :     0.965808


                      *****************************
                      * MAYER POPULATION ANALYSIS *
                      *****************************

  NA   - Mulliken gross atomic population
  ZA   - Total nuclear charge
  QA   - Mulliken gross atomic charge
  VA   - Mayer's total valence
  BVA  - Mayer's bonded valence
  FA   - Mayer's free valence

  ATOM       NA         ZA         QA         VA         BVA        FA
  0 C      6.2260     6.0000    -0.2260     1.8623     1.8623    -0.0000
  1 H      0.8870     1.0000     0.1130     0.9268     0.9268     0.0000
  2 H      0.8870     1.0000     0.1130     0.9268     0.9268    -0.0000

  Mayer bond orders larger than 0.100000
B(  0-C ,  1-H ) :   0.9311 B(  0-C ,  2-H ) :   0.9311 

-------
TIMINGS
-------

Total SCF time: 0 days 0 hours 0 min 0 sec 

Total time                  ....       0.302 sec
Sum of individual times     ....       0.132 sec  ( 43.9%)

Fock matrix formation       ....       0.131 sec  ( 43.5%)
Diagonalization             ....       0.000 sec  (  0.0%)
Density matrix formation    ....       0.000 sec  (  0.0%)
Population analysis         ....       0.000 sec  (  0.1%)
Initial guess               ....       0.000 sec  (  0.1%)
Orbital Transformation      ....       0.000 sec  (  0.0%)
Orbital Orthonormalization  ....       0.000 sec  (  0.0%)
DIIS solution               ....       0.000 sec  (  0.0%)
SOSCF solution              ....       0.000 sec  (  0.1%)

-------------------------   --------------------
FINAL SINGLE POINT ENERGY       -38.864391350875
-------------------------   --------------------

                                *** OPTIMIZATION RUN DONE ***

                            ***************************************
                            *     ORCA property calculations      *
                            ***************************************

                                    ---------------------
                                    Active property flags
                                    ---------------------
   (+) Dipole Moment


------------------------------------------------------------------------------
                       ORCA ELECTRIC PROPERTIES CALCULATION
------------------------------------------------------------------------------

Dipole Moment Calculation                       ... on
Quadrupole Moment Calculation                   ... off
Polarizability Calculation                      ... off
GBWName                                         ... orca.gbw
Electron density file                           ... orca.scfp
The origin for moment calculation is the CENTER OF MASS  = ( 0.487640, -0.728760  0.000000)

-------------
DIPOLE MOMENT
-------------
                                X             Y             Z
Electronic contribution:      0.01183      -0.15763      -0.00000
Nuclear contribution   :     -0.07997       1.06514       0.00000
                        -----------------------------------------
Total Dipole Moment    :     -0.06813       0.90751      -0.00000
                        -----------------------------------------
Magnitude (a.u.)       :      0.91006
Magnitude (Debye)      :      2.31319



--------------------
Rotational spectrum 
--------------------
 
Rotational constants in cm-1:    22.095094    10.843664     7.273856 
Rotational constants in MHz : 662394.264935 325084.873782 218064.714046 

 Dipole components along the rotational axes: 
x,y,z [a.u.] :     0.000000     0.910060    -0.000000 
x,y,z [Debye]:     0.000000     2.313189    -0.000000 

 

Timings for individual modules:

Sum of individual times         ...        7.622 sec (=   0.127 min)
GTO integral calculation        ...        1.724 sec (=   0.029 min)  22.6 %
SCF iterations                  ...        3.699 sec (=   0.062 min)  48.5 %
SCF Gradient evaluation         ...        1.253 sec (=   0.021 min)  16.4 %
Geometry relaxation             ...        0.946 sec (=   0.016 min)  12.4 %
                             ****ORCA TERMINATED NORMALLY****
TOTAL RUN TIME: 0 days 0 hours 0 minutes 8 seconds 486 msec
