
                                 *****************
                                 * O   R   C   A *
                                 *****************

           --- An Ab Initio, DFT and Semiempirical electronic structure package ---

                  #######################################################
                  #                        -***-                        #
                  #          Department of theory and spectroscopy      #
                  #               Directorship: Frank Neese             #
                  #        Max Planck Institute fuer Kohlenforschung    #
                  #                Kaiser Wilhelm Platz 1               #
                  #                 D-45470 Muelheim/Ruhr               #
                  #                      Germany                        #
                  #                                                     #
                  #                  All rights reserved                #
                  #                        -***-                        #
                  #######################################################


                         Program Version 4.2.1 -  RELEASE  -


 With contributions from (in alphabetic order):
   Daniel Aravena         : Magnetic Suceptibility
   Michael Atanasov       : Ab Initio Ligand Field Theory (pilot matlab implementation)
   Alexander A. Auer      : GIAO ZORA, VPT2
   Ute Becker             : Parallelization
   Giovanni Bistoni       : ED, misc. LED, open-shell LED, HFLD
   Martin Brehm           : Molecular dynamics
   Dmytro Bykov           : SCF Hessian
   Vijay G. Chilkuri      : MRCI spin determinant printing, contributions to CSF-ICE
   Dipayan Datta          : RHF DLPNO-CCSD density
   Achintya Kumar Dutta   : EOM-CC, STEOM-CC
   Dmitry Ganyushin       : Spin-Orbit,Spin-Spin,Magnetic field MRCI
   Miquel Garcia          : C-PCM Hessian, Gaussian charge scheme
   Yang Guo               : DLPNO-NEVPT2, CIM, IAO-localization
   Andreas Hansen         : Spin unrestricted coupled pair/coupled cluster methods
   Benjamin Helmich-Paris : CASSCF linear response (MC-RPA)
   Lee Huntington         : MR-EOM, pCC
   Robert Izsak           : Overlap fitted RIJCOSX, COSX-SCS-MP3, EOM
   Christian Kollmar      : KDIIS, OOCD, Brueckner-CCSD(T), CCSD density
   Simone Kossmann        : Meta GGA functionals, TD-DFT gradient, OOMP2, MP2 Hessian
   Martin Krupicka        : AUTO-CI
   Lucas Lang             : DCDCAS
   Dagmar Lenk            : GEPOL surface, SMD
   Dimitrios Liakos       : Extrapolation schemes; Compound Job, initial MDCI parallelization
   Dimitrios Manganas     : Further ROCIS development; embedding schemes
   Dimitrios Pantazis     : SARC Basis sets
   Taras Petrenko         : DFT Hessian,TD-DFT gradient, ASA, ECA, R-Raman, ABS, FL, XAS/XES, NRVS
   Peter Pinski           : DLPNO-MP2, DLPNO-MP2 Gradient
   Christoph Reimann      : Effective Core Potentials
   Marius Retegan         : Local ZFS, SOC
   Christoph Riplinger    : Optimizer, TS searches, QM/MM, DLPNO-CCSD(T), (RO)-DLPNO pert. Triples
   Tobias Risthaus        : Range-separated hybrids, TD-DFT gradient, RPA, STAB
   Michael Roemelt        : Original ROCIS implementation
   Masaaki Saitow         : Open-shell DLPNO-CCSD energy and density
   Barbara Sandhoefer     : DKH picture change effects
   Avijit Sen             : IP-ROCIS
   Kantharuban Sivalingam : CASSCF convergence, NEVPT2, FIC-MRCI
   Bernardo de Souza      : ESD, SOC TD-DFT
   Georgi Stoychev        : AutoAux, RI-MP2 NMR
   Willem Van den Heuvel  : Paramagnetic NMR
   Boris Wezisla          : Elementary symmetry handling
   Frank Wennmohs         : Technical directorship


 We gratefully acknowledge several colleagues who have allowed us to
 interface, adapt or use parts of their codes:
   Stefan Grimme, W. Hujo, H. Kruse,             : VdW corrections, initial TS optimization,
                  C. Bannwarth                     DFT functionals, gCP, sTDA/sTD-DF
   Ed Valeev, F. Pavosevic, A. Kumar             : LibInt (2-el integral package), F12 methods
   Garnet Chan, S. Sharma, J. Yang, R. Olivares  : DMRG
   Ulf Ekstrom                                   : XCFun DFT Library
   Mihaly Kallay                                 : mrcc  (arbitrary order and MRCC methods)
   Andreas Klamt, Michael Diedenhofen            : otool_cosmo (COSMO solvation model)
   Jiri Pittner, Ondrej Demel                    : Mk-CCSD
   Frank Weinhold                                : gennbo (NPA and NBO analysis)
   Christopher J. Cramer and Donald G. Truhlar   : smd solvation model
   Lars Goerigk                                  : TD-DFT with DH, B97 family of functionals
   V. Asgeirsson, H. Jonsson                     : NEB implementation
   FAccTs GmbH                                   : IRC, NEB, NEB-TS, Multilevel, MM, QM/MM, CI optimization
   S Lehtola, MJT Oliveira, MAL Marques          : LibXC Library


 Your calculation uses the libint2 library for the computation of 2-el integrals
 For citations please refer to: http://libint.valeyev.net

 Your ORCA version has been built with support for libXC version: 4.2.3
 For citations please refer to: https://tddft.org/programs/libxc/

 This ORCA versions uses:
   CBLAS   interface :  Fast vector & matrix operations
   LAPACKE interface :  Fast linear algebra routines
   SCALAPACK package :  Parallel linear algebra routines




***************************************
The coordinates will be read from file: newinit.xyz
***************************************


Your calculation utilizes the semiempirical GFN2-xTB method
Please cite in your paper:
C. Bannwarth, Ehlert S., S. Grimme,  J. Chem. Theory Comput., 15, (2019), 1652.
   

----- Orbital basis set information -----
Your calculation utilizes the basis: def2-SVP
   F. Weigend and R. Ahlrichs, Phys. Chem. Chem. Phys. 7, 3297 (2005).

================================================================================
                                        WARNINGS
                       Please study these warnings very carefully!
================================================================================


WARNING: Geometry Optimization
  ===> : Switching off AutoStart
         For restart on a previous wavefunction, please use MOREAD

WARNING: Found dipole moment calculation with XTB calculation
  ===> : Switching off dipole moment calculation


INFO   : the flag for use of LIBINT has been found!

================================================================================
                                       INPUT FILE
================================================================================
NAME = orca.inp
|  1> !XTB  TIGHTOPT
|  2> 
|  3> ! numfreq
|  4> 
|  5> *xyzfile 0 1 newinit.xyz
|  6> 
|  7>                          ****END OF INPUT****
================================================================================

                       *****************************
                       * Geometry Optimization Run *
                       *****************************

Geometry optimization settings:
Update method            Update   .... BFGS
Choice of coordinates    CoordSys .... Z-matrix Internals
Initial Hessian          InHess   .... Almoef's Model

Convergence Tolerances:
Energy Change            TolE     ....  1.0000e-06 Eh
Max. Gradient            TolMAXG  ....  1.0000e-04 Eh/bohr
RMS Gradient             TolRMSG  ....  3.0000e-05 Eh/bohr
Max. Displacement        TolMAXD  ....  1.0000e-03 bohr
RMS Displacement         TolRMSD  ....  6.0000e-04 bohr
Strict Convergence                ....  False
------------------------------------------------------------------------------
                        ORCA OPTIMIZATION COORDINATE SETUP
------------------------------------------------------------------------------

The optimization will be done in new redundant internal coordinates
Making redundant internal coordinates   ...  (new redundants) done
Evaluating the initial hessian          ...  (Almloef) done
Evaluating the coordinates              ...  done
Calculating the B-matrix                .... done
Calculating the G-matrix                .... done
Diagonalizing the G-matrix              .... done
The first mode is                       ....   56
The number of degrees of freedom        ....   27

    -----------------------------------------------------------------
                    Redundant Internal Coordinates


    -----------------------------------------------------------------
         Definition                    Initial Value    Approx d2E/dq
    -----------------------------------------------------------------
      1. B(H   1,C   0)                  1.0775         0.377051   
      2. B(H   2,C   0)                  2.2296         0.005474   
      3. B(C   3,H   2)                  2.3460         0.003569   
      4. B(C   3,C   0)                  1.3203         0.807007   
      5. B(H   4,H   2)                  2.4536         0.000460   
      6. B(H   4,C   3)                  1.0787         0.375338   
      7. B(H   5,H   2)                  2.2409         0.001005   
      8. B(H   5,C   0)                  1.0783         0.375928   
      9. B(H   6,C   3)                  1.0780         0.376274   
     10. B(O   7,H   2)                  0.9744         0.493176   
     11. B(C   8,O   7)                  1.3268         0.705935   
     12. B(H   9,C   8)                  1.1125         0.331492   
     13. B(O  10,C   8)                  1.1886         1.172786   
     14. A(H   1,C   0,H   5)          115.9810         0.294947   
     15. A(H   2,C   0,H   5)           76.6262         0.168018   
     16. A(H   1,C   0,C   3)          121.3730         0.372066   
     17. A(H   2,C   0,C   3)           78.1334         0.197607   
     18. A(C   3,C   0,H   5)          122.6167         0.371875   
     19. A(H   1,C   0,H   2)          118.7377         0.168072   
     20. A(H   5,H   2,O   7)          154.5954         0.134250   
     21. A(C   0,H   2,H   5)           27.9138         0.105531   
     22. A(H   4,H   2,H   5)           63.5874         0.096547   
     23. A(H   4,H   2,O   7)          127.3840         0.126913   
     24. A(C   0,H   2,H   4)           53.1803         0.102850   
     25. A(C   3,H   2,H   5)           54.6421         0.104006   
     26. A(C   0,H   2,C   3)           33.4207         0.116540   
     27. A(C   3,H   2,O   7)          145.8791         0.164385   
     28. A(C   3,H   2,H   4)           25.8512         0.101573   
     29. A(H   2,C   3,H   4)           82.6568         0.160703   
     30. A(C   0,C   3,H   2)           68.4459         0.187588   
     31. A(H   4,C   3,H   6)          115.7659         0.294778   
     32. A(C   0,C   3,H   6)          121.7789         0.371934   
     33. A(C   0,C   3,H   4)          122.4251         0.371775   
     34. A(H   2,C   3,H   6)          123.1257         0.160744   
     35. A(H   2,H   4,C   3)           71.4921         0.125061   
     36. A(C   0,H   5,H   2)           75.4601         0.132055   
     37. A(H   2,O   7,C   8)          113.5326         0.375053   
     38. A(H   9,C   8,O  10)          122.5046         0.385746   
     39. A(O   7,C   8,O  10)          123.9230         0.492777   
     40. A(O   7,C   8,H   9)          113.5724         0.353538   
     41. D(H   5,H   2,C   0,C   3)    128.0317         0.001519   
     42. D(H   4,H   2,C   0,H   5)   -103.0687         0.001519   
     43. D(H   5,H   2,C   0,H   1)   -112.5301         0.001519   
     44. D(H   4,H   2,C   0,H   1)    144.4012         0.001519   
     45. D(H   4,H   2,C   0,C   3)     24.9630         0.001519   
     46. D(C   3,H   2,C   0,H   5)   -128.0317         0.001519   
     47. D(C   3,H   2,C   0,H   1)    119.4382         0.001519   
     48. D(H   2,C   3,C   0,H   1)   -116.5710         0.055284   
     49. D(H   6,C   3,C   0,H   5)   -178.0064         0.055284   
     50. D(H   2,C   3,C   0,H   5)     65.4759         0.055284   
     51. D(H   6,C   3,H   2,H   4)    116.0564         0.001508   
     52. D(H   6,C   3,C   0,H   2)    116.5177         0.055284   
     53. D(H   6,C   3,C   0,H   1)     -0.0533         0.055284   
     54. D(H   4,C   3,H   2,C   0)    129.2114         0.001508   
     55. D(H   4,C   3,C   0,H   2)    -65.5610         0.055284   
     56. D(H   4,C   3,H   2,O   7)    -55.6928         0.001508   
     57. D(H   4,C   3,C   0,H   5)     -0.0850         0.055284   
     58. D(C   0,C   3,H   2,H   5)    -26.8809         0.001508   
     59. D(C   0,C   3,H   2,H   4)   -129.2114         0.001508   
     60. D(H   4,C   3,H   2,H   5)    102.3305         0.001508   
     61. D(H   6,C   3,H   2,O   7)     60.3636         0.001508   
     62. D(H   6,C   3,H   2,C   0)   -114.7322         0.001508   
     63. D(H   4,C   3,C   0,H   1)    177.8680         0.055284   
     64. D(H   6,C   3,H   2,H   5)   -141.6131         0.001508   
     65. D(C   0,C   3,H   2,O   7)    175.0958         0.001508   
     66. D(H   2,H   4,C   3,H   6)   -123.3412         0.134403   
     67. D(H   2,H   4,C   3,C   0)     58.6209         0.134403   
     68. D(C   3,H   4,H   2,H   5)    -62.8233         0.001502   
     69. D(C   3,H   4,H   2,C   0)    -32.2149         0.001502   
     70. D(C   3,H   4,H   2,O   7)    144.3284         0.001502   
     71. D(H   2,H   5,C   0,H   1)    115.7154         0.134920   
     72. D(C   0,H   5,H   2,H   4)     60.5375         0.001511   
     73. D(C   0,H   5,H   2,C   3)     32.1374         0.001511   
     74. D(C   0,H   5,H   2,O   7)   -177.1582         0.001511   
     75. D(H   2,H   5,C   0,C   3)    -66.2287         0.134920   
     76. D(C   8,O   7,H   2,H   5)   -164.0773         0.365173   
     77. D(C   8,O   7,H   2,H   4)    -56.3826         0.365173   
     78. D(C   8,O   7,H   2,C   3)    -29.4277         0.365173   
     79. D(C   8,O   7,C   0,H   5)   -162.0227         0.001500   
     80. D(C   8,O   7,C   0,C   3)    -34.2534         0.001500   
     81. D(C   8,O   7,C   0,H   1)     85.0542         0.001500   
     82. D(O  10,C   8,O   7,H   2)    179.0320         0.037380   
     83. D(H   9,C   8,O   7,H   2)     -1.0070         0.037380   
    -----------------------------------------------------------------

Number of atoms                         .... 11
Number of degrees of freedom            .... 83

         *************************************************************
         *                GEOMETRY OPTIMIZATION CYCLE   1            *
         *************************************************************
      -----------------------------------------------------------      
     |                   =====================                   |     
     |                           x T B                           |     
     |                   =====================                   |     
     |                         S. Grimme                         |     
     |          Mulliken Center for Theoretical Chemistry        |     
     |                    University of Bonn                     |     
     |                 Version 6.0.1 (SAW181210)                 |     
      -----------------------------------------------------------      

   This program is distributed in the hope that it will be useful,
   but WITHOUT ANY WARRANTY; without even the implied warranty of
   MERCHANTABILITY or FITNESS FOR A PARTICULAR PURPOSE.
   
   FOR NON-COMMERCIAL, ACADEMIA USE ONLY.
   
   Cite this work as:
   S. Grimme, C. Bannwarth, P. Shushkov, J. Comput. Theory Chem., 2017,
   13, 1989-2009.
   C. Bannwarth, S. Ehlert and S. Grimme., ChemRxiv, 2018, preprint.
   http://doi.org/10.26434/chemrxiv.7246238.v1
   
   for sTDA-xTB:
   S. Grimme and C. Bannwarth, J. Chem. Phys., 2016, 145, 054103.
   
   in the mass-spec context:
   V. Asgeirsson, C. Bauer and S. Grimme, Chem. Sci., 2017, 8, 4879.
   
   if GBSA is used:
   P. Shushkov, F. März and S. Grimme, unpublished.
   
   for ANC optimizer:
   S. Grimme, unpublished.
   Rational Function algorithm used in ANCopt:
   F. Eckert, P. Pulay, H.-J. Werner, J. Comput. Chem., 1997, 18, 1473.
   
   with help from (in alphabetical order)
   C. Bannwarth, F. Bohle, G. Brandenburg, E. Caldeweyher, M. Checinski,
   S. Dohm, S. Ehlert, S. Ehrlich, F. März, H. Neugebauer, J. Pisarek,
   P. Pracht, P. Shushkov, and S. Spicher.
   
 * started run on 2020/12/16 at 16:17:12.883     
========================================================================
 # omp threads = 1
========================================================================
calculation namespace      : orca
number of atoms            : 11
number of electrons        : 30
charge                     : 0
spin                       : .0
first test random number   : .1723

########################################################################
# WARNING! Please study the warnings concerning your input carefully
#  - XTBHOME is not set, using HOME instead
#  - XTBPATH is not set, using XTBHOME instead
########################################################################

           ------------------------------------------------- 
          |                 G F N 2 - x T B                 |
          | Geometry, Frequencies, Noncovalent interactions |
          |            JCTC 2018 parametrisation            |
           ------------------------------------------------- 
      method parameters     
 k(s)        :  1.8500
 k(p)        :  2.2300
 k(d)        :  2.2300
 k(f)        :  2.0000
 kEN (H0ij)  : -2.0000
 D4 a1       :  0.5200
 D4 a2       :  5.0000
 D4 s6       :  1.0000
 D4 s8       :  2.7000
 D4 s9       :  5.0000
 alphaj      :  2.0000


            Z     q(EN)     CN     RAES       Cart. coordinates
     1  C   4.0   -0.07    3.02    3.02     1.06541     1.92792    -1.83633
     2  H   1.0    0.07    1.00    1.43     3.02478     2.31486    -2.23258
     3  H   1.0    0.12    1.06    1.44    -0.89329    -1.07700    -4.04668
     4  C   4.0   -0.08    3.01    3.02     0.39414     0.32748    -0.04373
     5  H   1.0    0.07    1.00    1.43    -1.55671    -0.03592     0.42266
     6  H   1.0    0.07    1.00    1.43    -0.29175     2.96740    -2.94524
     7  H   1.0    0.06    1.00    1.43     1.77329    -0.65379     1.08995
     8  O   6.0   -0.22    2.04    1.83    -1.67511    -2.44132    -5.00477
     9  C   4.0    0.19    2.99    3.02    -1.30309    -4.70927    -4.00270
    10  H   1.0    0.05    0.99    1.43    -0.13327    -4.67515    -2.25617
    11  O   6.0   -0.25    1.10    1.80    -2.12685    -6.61188    -4.86669

  Z AO/shell   Hii/eV     exponent
  1     Wed Apr 25 08:07:45 CEST 2018   EN: 2.200 GM2: 0.406  GM3: 0.0800  RAES: 1.40
     1s    -10.707211    1.230000
  6     Wed Apr 25 08:07:45 CEST 2018   EN: 2.550 GM2: 0.538  GM3: 0.1500  RAES: 3.00
     2s    -13.970922    2.096432
     2p    -10.063292    1.800000
  8     Wed Apr 25 08:07:45 CEST 2018   EN: 3.440 GM2: 0.452  GM3:-0.0517  RAES: 1.80
     2s    -20.229985    2.439742
     2p    -15.503117    2.137023
 no old-style atom pair restraining (fixing) potential

molecular fragmentation (1/2 indicates fragments):
11211112222
# atoms in fragment 1/2:     6     5
 fragment masses (1/2) :       28.05       46.03
CMA distance (Bohr)    :   7.147
constraining FC (au)   :  0.0500
           ------------------------------------------------- 
          |        Self-Consistent Charge Iterations        |
           ------------------------------------------------- 

 Ncao       : 26
 Nao        : 26
 Nshell     : 16
 Nel        : 30
 T(el)      :   300.0
 intcut     :    25.0
 scfconv/Eh :  0.100E-05
   qconv/e  :  0.100E-03
 intneglect :  0.100E-07
 broydamp   :      0.250
 iter      E             dE          RMSdq      gap      omega  full diag
   1    -17.6963347 -0.176963E+02  0.552E+00    5.38       0.0  T
   2    -17.7546047 -0.582700E-01  0.355E+00    5.21       1.0  T
   3    -17.7581171 -0.351239E-02  0.158E+00    4.86       1.0  T
   4    -17.7597155 -0.159837E-02  0.352E-01    5.01       1.0  T
   5    -17.7601401 -0.424620E-03  0.191E-01    4.98       1.0  T
   6    -17.7602896 -0.149514E-03  0.537E-02    5.01       1.0  T
   7    -17.7602932 -0.360159E-05  0.295E-02    5.03       1.0  T
   8    -17.7602946 -0.137551E-05  0.193E-02    5.02       1.6  T
   9    -17.7602963 -0.171110E-05  0.567E-03    5.02       5.3  T
  10    -17.7602965 -0.200650E-06  0.206E-03    5.02      14.6  T
  11    -17.7602965 -0.146685E-07  0.576E-04    5.02      52.3  T
  12    -17.7602965 -0.406114E-09  0.355E-04    5.02      84.9  T
speedup  0.08
cpu  time for SCC    0.01 s
wall time for SCC    0.07 s

   *** convergence criteria satisfied after 12 iterations ***

          eigenvalues
 #    :           3          4          5          6          7          8          9         10
 occ. :        2.000      2.000      2.000      2.000      2.000      2.000      2.000      2.000
 eps  :       -17.868    -17.543    -17.154    -15.965    -15.816    -15.311    -14.670    -14.164
 #    :          11         12         13         14         15         16         17         18
 occ. :        2.000      2.000      2.000      2.000      2.000      0.000      0.000      0.000
 eps  :       -13.706    -13.248    -12.574    -12.285    -11.712     -6.692     -6.630      1.630
 #    :          19         20         21         22         23         24         25         26
 occ. :        0.000      0.000      0.000      0.000      0.000      0.000      0.000      0.000
 eps  :         2.873      3.259      3.508      4.957      8.590     11.047     15.278     17.416


   #   Z            q   n(s)   n(p)   n(d)      C6AA      α(0)
   1   6 C     -0.087  1.088  2.999  0.000    30.168     9.001
   2   1 H      0.051  0.949  0.000  0.000     2.302     2.373
   3   1 H      0.328  0.672  0.000  0.000     0.643     1.259
   4   6 C     -0.083  1.088  2.995  0.000    30.067     8.986
   5   1 H      0.047  0.953  0.000  0.000     2.357     2.401
   6   1 H      0.048  0.952  0.000  0.000     2.345     2.394
   7   1 H      0.050  0.950  0.000  0.000     2.321     2.382
   8   8 O     -0.357  1.687  4.669  0.000    20.027     6.041
   9   6 C      0.344  1.017  2.639  0.000    21.157     7.524
  10   1 H     -0.006  1.006  0.000  0.000     3.174     2.786
  11   8 O     -0.336  1.720  4.616  0.000    20.440     6.062

 Mol. C6AA /au·bohr⁶  :       1099.002051
 Mol. C8AA /au·bohr⁸  :      23685.549207
 Mol. α(0) /au        :         51.208375

 
 Wiberg/Mayer (AO) data. WBOs > 0.1 written file <wbo>
 largest (>0.05) Wiberg bond orders for each atom
           total WBO             WBO to atom ...
     1  C   3.991    C    4 2.014    H    2 0.976    H    6 0.973
     2  H   0.997    C    1 0.976
     3  H   0.892    O    8 0.841
     4  C   3.991    C    1 2.014    H    7 0.976    H    5 0.975
     5  H   0.998    C    4 0.975
     6  H   0.998    C    1 0.973
     7  H   0.998    C    4 0.976
     8  O   2.232    C    9 1.165    H    3 0.841    O   11 0.185
     9  C   3.925    O   11 1.841    O    8 1.165    H   10 0.917
    10  H   1.000    C    9 0.917    O   11 0.056
    11  O   2.099    C    9 1.841    O    8 0.185    H   10 0.056
 MOs/occ written to file <molden.input>
 
molecular dipole:
                 x           y           z       tot (Debye)
 q only:        0.602       1.178       0.709
   full:        0.811       1.435       0.991       4.889
molecular quadrupole (traceless):
                xx          xy          yy          xz          yz          zz
 q only:        6.022      -5.522      -5.229      -5.331     -11.582      -0.792
  q+dip:        8.960      -7.287      -7.413      -7.079     -15.732      -1.547
   full:        8.737      -7.447      -7.094      -7.628     -14.939      -1.642
speedup  0.14
cpu  time for grad    0.01 s
wall time for grad    0.08 s

SCC energy    :     -17.7602965
rep           :       0.2120949
ES            :       0.0439799
AES           :       0.0033201
AXC           :       0.0059311
disp          :      -0.0045307
XB            :       0.0000000
fix           :       0.0000000
grad norm     :       0.0028282
total E       :     -17.5481975
atomizationE  :       2.7870769     1748.92
(atE without considering molecular charge,
 total energy contains solvation terms)
H-L gap (eV)  :          5.0200

------------------------------------------------------------------------
 * finished run on 2020/12/16 at 16:17:13.067     
------------------------------------------------------------------------
 total:
 * wall-time:     0 d,  0 h,  0 min,  0.183 sec
 *  cpu-time:     0 d,  0 h,  0 min,  0.025 sec
 * ratio c/w:     0.137 speedup
 SCF:
 * wall-time:     0 d,  0 h,  0 min,  0.077 sec
 *  cpu-time:     0 d,  0 h,  0 min,  0.012 sec
 * ratio c/w:     0.152 speedup


-------------------------   --------------------
FINAL SINGLE POINT ENERGY       -17.548197475950
-------------------------   --------------------

------------------------------------------------------------------------------
                         ORCA GEOMETRY RELAXATION STEP
------------------------------------------------------------------------------

Reading the OPT-File                    .... done
Getting information on internals        .... done
Copying old internal coords+grads       .... done
Making the new internal coordinates     .... (new redundants).... done
Validating the new internal coordinates .... (new redundants).... done
Calculating the B-matrix                .... done
Calculating the G,G- and P matrices     .... done
Transforming gradient to internals      .... done
Projecting the internal gradient        .... done
Number of atoms                         ....  11
Number of internal coordinates          ....  83
Current Energy                          ....   -17.548197476 Eh
Current gradient norm                   ....     0.002828172 Eh/bohr
Maximum allowed component of the step   ....  0.300
Current trust radius                    ....  0.300
Evaluating the initial hessian          ....  (Almloef) done
Projecting the Hessian                  .... done
Forming the augmented Hessian           .... done
Diagonalizing the augmented Hessian     .... done
Last element of RFO vector              ....  0.999891104
Lowest eigenvalues of augmented Hessian:
 -0.000016217  0.010446008  0.030634278  0.035569284  0.037380306
Length of the computed step             ....  0.014758949
The final length of the internal step   ....  0.014758949
Converting the step to cartesian space:
 Initial RMS(Int)=    0.0016200052
Transforming coordinates:
 Iter   0:  RMS(Cart)=    0.0032474481 RMS(Int)=    0.0016192426
 Iter   1:  RMS(Cart)=    0.0000066468 RMS(Int)=    0.0000042734
 Iter   2:  RMS(Cart)=    0.0000000287 RMS(Int)=    0.0000000122
done
Storing new coordinates                 .... done

                                .--------------------.
          ----------------------|Geometry convergence|-------------------------
          Item                value                   Tolerance       Converged
          ---------------------------------------------------------------------
          RMS gradient        0.0001884829            0.0000300000      NO
          MAX gradient        0.0010572559            0.0001000000      NO
          RMS step            0.0016200052            0.0006000000      NO
          MAX step            0.0045344864            0.0010000000      NO
          ........................................................
          Max(Bonds)      0.0019      Max(Angles)    0.15
          Max(Dihed)        0.26      Max(Improp)    0.00
          ---------------------------------------------------------------------

The optimization has not yet converged - more geometry cycles are needed


    ---------------------------------------------------------------------------
                         Redundant Internal Coordinates
                            (Angstroem and degrees)

        Definition                    Value    dE/dq     Step     New-Value
    ----------------------------------------------------------------------------
     1. B(H   1,C   0)                1.0775 -0.000313  0.0004    1.0779   
     2. B(H   2,C   0)                2.2296  0.000102 -0.0019    2.2277   
     3. B(C   3,H   2)                2.3460 -0.000040 -0.0005    2.3455   
     4. B(C   3,C   0)                1.3203  0.000058 -0.0000    1.3203   
     5. B(H   4,H   2)                2.4536 -0.000056 -0.0001    2.4535   
     6. B(H   4,C   3)                1.0787 -0.000156  0.0003    1.0791   
     7. B(H   5,H   2)                2.2409 -0.000035 -0.0010    2.2399   
     8. B(H   5,C   0)                1.0783 -0.000343  0.0006    1.0789   
     9. B(H   6,C   3)                1.0780  0.000002 -0.0000    1.0780   
    10. B(O   7,H   2)                0.9744 -0.000032  0.0000    0.9744   
    11. B(C   8,O   7)                1.3268 -0.001057  0.0008    1.3276   
    12. B(H   9,C   8)                1.1125 -0.000168  0.0003    1.1128   
    13. B(O  10,C   8)                1.1886 -0.000022  0.0000    1.1886   
    14. A(H   1,C   0,H   5)          115.98  0.000107   -0.04    115.94   
    15. A(H   2,C   0,H   5)           76.63 -0.000020    0.03     76.66   
    16. A(H   1,C   0,C   3)          121.37 -0.000192    0.14    121.52   
    17. A(H   2,C   0,C   3)           78.13 -0.000063    0.05     78.19   
    18. A(C   3,C   0,H   5)          122.62  0.000081   -0.10    122.51   
    19. A(H   1,C   0,H   2)          118.74  0.000250   -0.15    118.58   
    20. A(H   5,H   2,O   7)          154.60  0.000095   -0.04    154.56   
    21. A(C   0,H   2,H   5)           27.91 -0.000087    0.03     27.95   
    22. A(H   4,H   2,H   5)           63.59  0.000004   -0.04     63.55   
    23. A(H   4,H   2,O   7)          127.38 -0.000053    0.06    127.44   
    24. A(C   0,H   2,H   4)           53.18 -0.000016    0.02     53.20   
    25. A(C   3,H   2,H   5)           54.64 -0.000030    0.00     54.64   
    26. A(C   0,H   2,C   3)           33.42  0.000013    0.01     33.43   
    27. A(C   3,H   2,O   7)          145.88 -0.000069    0.05    145.93   
    28. A(C   3,H   2,H   4)           25.85 -0.000030    0.01     25.86   
    29. A(H   2,C   3,H   4)           82.66  0.000015    0.01     82.67   
    30. A(C   0,C   3,H   2)           68.45  0.000051   -0.07     68.38   
    31. A(H   4,C   3,H   6)          115.77 -0.000070    0.04    115.80   
    32. A(C   0,C   3,H   6)          121.78  0.000044    0.00    121.78   
    33. A(C   0,C   3,H   4)          122.43  0.000020   -0.04    122.39   
    34. A(H   2,C   3,H   6)          123.13  0.000109   -0.06    123.07   
    35. A(H   2,H   4,C   3)           71.49  0.000015   -0.02     71.47   
    36. A(C   0,H   5,H   2)           75.46  0.000107   -0.06     75.40   
    37. A(H   2,O   7,C   8)          113.53  0.000647   -0.10    113.43   
    38. A(H   9,C   8,O  10)          122.50 -0.000179    0.03    122.54   
    39. A(O   7,C   8,O  10)          123.92 -0.000222    0.03    123.95   
    40. A(O   7,C   8,H   9)          113.57  0.000400   -0.06    113.51   
    41. D(H   5,H   2,C   0,C   3)    128.03  0.000130   -0.16    127.88   
    42. D(H   4,H   2,C   0,H   5)   -103.07 -0.000149    0.17   -102.90   
    43. D(H   5,H   2,C   0,H   1)   -112.53 -0.000105    0.02   -112.51   
    44. D(H   4,H   2,C   0,H   1)    144.40 -0.000254    0.19    144.59   
    45. D(H   4,H   2,C   0,C   3)     24.96 -0.000020    0.01     24.97   
    46. D(C   3,H   2,C   0,H   5)   -128.03 -0.000130    0.16   -127.88   
    47. D(C   3,H   2,C   0,H   1)    119.44 -0.000235    0.18    119.62   
    48. D(H   2,C   3,C   0,H   1)   -116.57 -0.000244    0.14   -116.43   
    49. D(H   6,C   3,C   0,H   5)   -178.01  0.000030    0.04   -177.97   
    50. D(H   2,C   3,C   0,H   5)     65.48 -0.000119    0.14     65.61   
    51. D(H   6,C   3,H   2,H   4)    116.06 -0.000055    0.04    116.10   
    52. D(H   6,C   3,C   0,H   2)    116.52  0.000149   -0.10    116.42   
    53. D(H   6,C   3,C   0,H   1)     -0.05 -0.000095    0.04     -0.01   
    54. D(H   4,C   3,H   2,C   0)    129.21 -0.000010   -0.02    129.19   
    55. D(H   4,C   3,C   0,H   2)    -65.56 -0.000051    0.02    -65.54   
    56. D(H   4,C   3,H   2,O   7)    -55.69  0.000062   -0.10    -55.79   
    57. D(H   4,C   3,C   0,H   5)     -0.09 -0.000170    0.15      0.07   
    58. D(C   0,C   3,H   2,H   5)    -26.88  0.000124   -0.09    -26.97   
    59. D(C   0,C   3,H   2,H   4)   -129.21  0.000010    0.02   -129.19   
    60. D(H   4,C   3,H   2,H   5)    102.33  0.000114   -0.11    102.22   
    61. D(H   6,C   3,H   2,O   7)     60.36  0.000007   -0.06     60.30   
    62. D(H   6,C   3,H   2,C   0)   -114.73 -0.000065    0.03   -114.71   
    63. D(H   4,C   3,C   0,H   1)    177.87 -0.000295    0.16    178.02   
    64. D(H   6,C   3,H   2,H   5)   -141.61  0.000059   -0.07   -141.68   
    65. D(C   0,C   3,H   2,O   7)    175.10  0.000072   -0.08    175.01   
    66. D(H   2,H   4,C   3,H   6)   -123.34 -0.000119    0.05   -123.29   
    67. D(H   2,H   4,C   3,C   0)     58.62  0.000067   -0.06     58.56   
    68. D(C   3,H   4,H   2,H   5)    -62.82  0.000094   -0.09    -62.91   
    69. D(C   3,H   4,H   2,C   0)    -32.21 -0.000025   -0.01    -32.23   
    70. D(C   3,H   4,H   2,O   7)    144.33 -0.000014   -0.03    144.30   
    71. D(H   2,H   5,C   0,H   1)    115.72  0.000267   -0.16    115.56   
    72. D(C   0,H   5,H   2,H   4)     60.54 -0.000087    0.12     60.66   
    73. D(C   0,H   5,H   2,C   3)     32.14 -0.000038    0.09     32.23   
    74. D(C   0,H   5,H   2,O   7)   -177.16 -0.000136    0.16   -177.00   
    75. D(H   2,H   5,C   0,C   3)    -66.23  0.000143   -0.15    -66.38   
    76. D(C   8,O   7,H   2,H   5)   -164.08  0.000079   -0.02   -164.10   
    77. D(C   8,O   7,H   2,H   4)    -56.38  0.000101   -0.03    -56.42   
    78. D(C   8,O   7,H   2,C   3)    -29.43  0.000027    0.04    -29.39   
    79. D(C   8,O   7,C   0,H   5)   -162.02 -0.000046    0.11   -161.91   
    80. D(C   8,O   7,C   0,C   3)    -34.25  0.000090   -0.05    -34.31   
    81. D(C   8,O   7,C   0,H   1)     85.05 -0.000153    0.13     85.19   
    82. D(O  10,C   8,O   7,H   2)    179.03 -0.000117    0.18    179.21   
    83. D(H   9,C   8,O   7,H   2)     -1.01 -0.000170    0.26     -0.75   
    ----------------------------------------------------------------------------

         *************************************************************
         *                GEOMETRY OPTIMIZATION CYCLE   2            *
         *************************************************************
      -----------------------------------------------------------      
     |                   =====================                   |     
     |                           x T B                           |     
     |                   =====================                   |     
     |                         S. Grimme                         |     
     |          Mulliken Center for Theoretical Chemistry        |     
     |                    University of Bonn                     |     
     |                 Version 6.0.1 (SAW181210)                 |     
      -----------------------------------------------------------      

   This program is distributed in the hope that it will be useful,
   but WITHOUT ANY WARRANTY; without even the implied warranty of
   MERCHANTABILITY or FITNESS FOR A PARTICULAR PURPOSE.
   
   FOR NON-COMMERCIAL, ACADEMIA USE ONLY.
   
   Cite this work as:
   S. Grimme, C. Bannwarth, P. Shushkov, J. Comput. Theory Chem., 2017,
   13, 1989-2009.
   C. Bannwarth, S. Ehlert and S. Grimme., ChemRxiv, 2018, preprint.
   http://doi.org/10.26434/chemrxiv.7246238.v1
   
   for sTDA-xTB:
   S. Grimme and C. Bannwarth, J. Chem. Phys., 2016, 145, 054103.
   
   in the mass-spec context:
   V. Asgeirsson, C. Bauer and S. Grimme, Chem. Sci., 2017, 8, 4879.
   
   if GBSA is used:
   P. Shushkov, F. März and S. Grimme, unpublished.
   
   for ANC optimizer:
   S. Grimme, unpublished.
   Rational Function algorithm used in ANCopt:
   F. Eckert, P. Pulay, H.-J. Werner, J. Comput. Chem., 1997, 18, 1473.
   
   with help from (in alphabetical order)
   C. Bannwarth, F. Bohle, G. Brandenburg, E. Caldeweyher, M. Checinski,
   S. Dohm, S. Ehlert, S. Ehrlich, F. März, H. Neugebauer, J. Pisarek,
   P. Pracht, P. Shushkov, and S. Spicher.
   
 * started run on 2020/12/16 at 16:17:13.212     
========================================================================
 # omp threads = 1
========================================================================
calculation namespace      : orca
number of atoms            : 11
number of electrons        : 30
charge                     : 0
spin                       : .0
first test random number   : .5599

########################################################################
# WARNING! Please study the warnings concerning your input carefully
#  - XTBHOME is not set, using HOME instead
#  - XTBPATH is not set, using XTBHOME instead
########################################################################

           ------------------------------------------------- 
          |                 G F N 2 - x T B                 |
          | Geometry, Frequencies, Noncovalent interactions |
          |            JCTC 2018 parametrisation            |
           ------------------------------------------------- 
      method parameters     
 k(s)        :  1.8500
 k(p)        :  2.2300
 k(d)        :  2.2300
 k(f)        :  2.0000
 kEN (H0ij)  : -2.0000
 D4 a1       :  0.5200
 D4 a2       :  5.0000
 D4 s6       :  1.0000
 D4 s8       :  2.7000
 D4 s9       :  5.0000
 alphaj      :  2.0000


            Z     q(EN)     CN     RAES       Cart. coordinates
     1  C   4.0   -0.07    3.02    3.02     1.06609     1.92476    -1.83684
     2  H   1.0    0.07    1.00    1.43     3.02512     2.30983    -2.24079
     3  H   1.0    0.12    1.06    1.44    -0.89382    -1.07543    -4.04563
     4  C   4.0   -0.08    3.01    3.02     0.39409     0.32633    -0.04286
     5  H   1.0    0.07    1.00    1.43    -1.55790    -0.03458     0.42346
     6  H   1.0    0.07    1.00    1.43    -0.29398     2.96664    -2.94196
     7  H   1.0    0.06    1.00    1.43     1.77276    -0.65769     1.08903
     8  O   6.0   -0.22    2.04    1.83    -1.67538    -2.43856    -5.00573
     9  C   4.0    0.19    2.99    3.02    -1.30171    -4.70729    -4.00229
    10  H   1.0    0.05    0.99    1.43    -0.13931    -4.66863    -2.25031
    11  O   6.0   -0.25    1.10    1.80    -2.11841    -6.61202    -4.86836

  Z AO/shell   Hii/eV     exponent
  1     Wed Apr 25 08:07:45 CEST 2018   EN: 2.200 GM2: 0.406  GM3: 0.0800  RAES: 1.40
     1s    -10.707211    1.230000
  6     Wed Apr 25 08:07:45 CEST 2018   EN: 2.550 GM2: 0.538  GM3: 0.1500  RAES: 3.00
     2s    -13.970922    2.096432
     2p    -10.063292    1.800000
  8     Wed Apr 25 08:07:45 CEST 2018   EN: 3.440 GM2: 0.452  GM3:-0.0517  RAES: 1.80
     2s    -20.229985    2.439742
     2p    -15.503117    2.137023
 no old-style atom pair restraining (fixing) potential

molecular fragmentation (1/2 indicates fragments):
11211112222
# atoms in fragment 1/2:     6     5
 fragment masses (1/2) :       28.05       46.03
CMA distance (Bohr)    :   7.144
constraining FC (au)   :  0.0500
           ------------------------------------------------- 
          |        Self-Consistent Charge Iterations        |
           ------------------------------------------------- 

 Ncao       : 26
 Nao        : 26
 Nshell     : 16
 Nel        : 30
 T(el)      :   300.0
 intcut     :    25.0
 scfconv/Eh :  0.100E-05
   qconv/e  :  0.100E-03
 intneglect :  0.100E-07
 broydamp   :      0.250
 iter      E             dE          RMSdq      gap      omega  full diag
   1    -17.6960280 -0.176960E+02  0.553E+00    5.38       0.0  T
   2    -17.7543250 -0.582970E-01  0.355E+00    5.21       1.0  T
   3    -17.7578342 -0.350917E-02  0.158E+00    4.86       1.0  T
   4    -17.7594314 -0.159723E-02  0.352E-01    5.01       1.0  T
   5    -17.7598482 -0.416816E-03  0.191E-01    4.98       1.0  T
   6    -17.7600015 -0.153242E-03  0.539E-02    5.01       1.0  T
   7    -17.7600050 -0.353353E-05  0.296E-02    5.02       1.0  T
   8    -17.7600065 -0.143921E-05  0.193E-02    5.02       1.6  T
   9    -17.7600082 -0.170042E-05  0.566E-03    5.02       5.3  T
  10    -17.7600084 -0.199014E-06  0.207E-03    5.02      14.6  T
  11    -17.7600084 -0.148922E-07  0.576E-04    5.02      52.3  T
  12    -17.7600084 -0.401368E-09  0.354E-04    5.02      85.1  T
speedup  0.93
cpu  time for SCC    0.00 s
wall time for SCC    0.00 s

   *** convergence criteria satisfied after 12 iterations ***

          eigenvalues
 #    :           3          4          5          6          7          8          9         10
 occ. :        2.000      2.000      2.000      2.000      2.000      2.000      2.000      2.000
 eps  :       -17.865    -17.544    -17.153    -15.962    -15.816    -15.312    -14.670    -14.167
 #    :          11         12         13         14         15         16         17         18
 occ. :        2.000      2.000      2.000      2.000      2.000      0.000      0.000      0.000
 eps  :       -13.706    -13.249    -12.574    -12.287    -11.714     -6.697     -6.630      1.630
 #    :          19         20         21         22         23         24         25         26
 occ. :        0.000      0.000      0.000      0.000      0.000      0.000      0.000      0.000
 eps  :         2.858      3.242      3.494      4.941      8.549     11.030     15.278     17.413


   #   Z            q   n(s)   n(p)   n(d)      C6AA      α(0)
   1   6 C     -0.087  1.088  2.999  0.000    30.166     9.000
   2   1 H      0.051  0.949  0.000  0.000     2.302     2.373
   3   1 H      0.328  0.672  0.000  0.000     0.643     1.260
   4   6 C     -0.083  1.088  2.995  0.000    30.065     8.985
   5   1 H      0.047  0.953  0.000  0.000     2.357     2.401
   6   1 H      0.048  0.952  0.000  0.000     2.346     2.395
   7   1 H      0.050  0.950  0.000  0.000     2.320     2.382
   8   8 O     -0.357  1.688  4.669  0.000    20.033     6.042
   9   6 C      0.344  1.017  2.639  0.000    21.159     7.524
  10   1 H     -0.006  1.006  0.000  0.000     3.172     2.785
  11   8 O     -0.335  1.720  4.615  0.000    20.433     6.061

 Mol. C6AA /au·bohr⁶  :       1098.982254
 Mol. C8AA /au·bohr⁸  :      23685.150929
 Mol. α(0) /au        :         51.207911

 
 Wiberg/Mayer (AO) data. WBOs > 0.1 written file <wbo>
 largest (>0.05) Wiberg bond orders for each atom
           total WBO             WBO to atom ...
     1  C   3.991    C    4 2.013    H    2 0.976    H    6 0.973
     2  H   0.997    C    1 0.976
     3  H   0.892    O    8 0.841
     4  C   3.991    C    1 2.013    H    7 0.976    H    5 0.975
     5  H   0.998    C    4 0.975
     6  H   0.998    C    1 0.973
     7  H   0.998    C    4 0.976
     8  O   2.231    C    9 1.164    H    3 0.841    O   11 0.185
     9  C   3.925    O   11 1.841    O    8 1.164    H   10 0.917
    10  H   1.000    C    9 0.917    O   11 0.056
    11  O   2.100    C    9 1.841    O    8 0.185    H   10 0.056
 MOs/occ written to file <molden.input>
 
molecular dipole:
                 x           y           z       tot (Debye)
 q only:        0.600       1.177       0.711
   full:        0.807       1.434       0.993       4.885
molecular quadrupole (traceless):
                xx          xy          yy          xz          yz          zz
 q only:        6.036      -5.495      -5.218      -5.319     -11.581      -0.818
  q+dip:        8.982      -7.248      -7.404      -7.066     -15.732      -1.577
   full:        8.763      -7.406      -7.086      -7.609     -14.942      -1.677
speedup  0.97
cpu  time for grad    0.01 s
wall time for grad    0.01 s

SCC energy    :     -17.7600084
rep           :       0.2117928
ES            :       0.0439604
AES           :       0.0033230
AXC           :       0.0059531
disp          :      -0.0045328
XB            :       0.0000000
fix           :       0.0000000
grad norm     :       0.0018852
total E       :     -17.5482115
atomizationE  :       2.7870909     1748.93
(atE without considering molecular charge,
 total energy contains solvation terms)
H-L gap (eV)  :          5.0174

------------------------------------------------------------------------
 * finished run on 2020/12/16 at 16:17:13.235     
------------------------------------------------------------------------
 total:
 * wall-time:     0 d,  0 h,  0 min,  0.022 sec
 *  cpu-time:     0 d,  0 h,  0 min,  0.017 sec
 * ratio c/w:     0.766 speedup
 SCF:
 * wall-time:     0 d,  0 h,  0 min,  0.009 sec
 *  cpu-time:     0 d,  0 h,  0 min,  0.009 sec
 * ratio c/w:     1.000 speedup


-------------------------   --------------------
FINAL SINGLE POINT ENERGY       -17.548211506370
-------------------------   --------------------

------------------------------------------------------------------------------
                         ORCA GEOMETRY RELAXATION STEP
------------------------------------------------------------------------------

Reading the OPT-File                    .... done
Getting information on internals        .... done
Copying old internal coords+grads       .... done
Making the new internal coordinates     .... (new redundants).... done
Validating the new internal coordinates .... (new redundants).... done
Calculating the B-matrix                .... done
Calculating the G,G- and P matrices     .... done
Transforming gradient to internals      .... done
Projecting the internal gradient        .... done
Number of atoms                         ....  11
Number of internal coordinates          ....  83
Current Energy                          ....   -17.548211506 Eh
Current gradient norm                   ....     0.001885230 Eh/bohr
Maximum allowed component of the step   ....  0.300
Current trust radius                    ....  0.300
Updating the Hessian (BFGS)             .... done
Forming the augmented Hessian           .... done
Diagonalizing the augmented Hessian     .... done
Last element of RFO vector              ....  0.998251251
Lowest eigenvalues of augmented Hessian:
 -0.000047967  0.009421187  0.014853024  0.032209136  0.035815236
Length of the computed step             ....  0.059217337
The final length of the internal step   ....  0.059217337
Converting the step to cartesian space:
 Initial RMS(Int)=    0.0064999471
Transforming coordinates:
 Iter   0:  RMS(Cart)=    0.0127763491 RMS(Int)=    0.6876465832
 Iter   1:  RMS(Cart)=    0.0000961336 RMS(Int)=    0.0000625410
 Iter   2:  RMS(Cart)=    0.0000016342 RMS(Int)=    0.0000007516
 Iter   3:  RMS(Cart)=    0.0000000305 RMS(Int)=    0.0000000194
done
Storing new coordinates                 .... done

                                .--------------------.
          ----------------------|Geometry convergence|-------------------------
          Item                value                   Tolerance       Converged
          ---------------------------------------------------------------------
          Energy change      -0.0000140304            0.0000010000      NO
          RMS gradient        0.0001224353            0.0000300000      NO
          MAX gradient        0.0004959630            0.0001000000      NO
          RMS step            0.0064999471            0.0006000000      NO
          MAX step            0.0186463462            0.0010000000      NO
          ........................................................
          Max(Bonds)      0.0084      Max(Angles)    0.68
          Max(Dihed)        1.07      Max(Improp)    0.00
          ---------------------------------------------------------------------

The optimization has not yet converged - more geometry cycles are needed


    ---------------------------------------------------------------------------
                         Redundant Internal Coordinates
                            (Angstroem and degrees)

        Definition                    Value    dE/dq     Step     New-Value
    ----------------------------------------------------------------------------
     1. B(H   1,C   0)                1.0779  0.000019  0.0003    1.0783   
     2. B(H   2,C   0)                2.2277  0.000125 -0.0084    2.2192   
     3. B(C   3,H   2)                2.3455 -0.000047 -0.0012    2.3443   
     4. B(C   3,C   0)                1.3203  0.000049 -0.0002    1.3201   
     5. B(H   4,H   2)                2.4535 -0.000070  0.0014    2.4549   
     6. B(H   4,C   3)                1.0791  0.000022  0.0004    1.0795   
     7. B(H   5,H   2)                2.2399 -0.000006 -0.0044    2.2355   
     8. B(H   5,C   0)                1.0789 -0.000091  0.0011    1.0800   
     9. B(H   6,C   3)                1.0780 -0.000002  0.0000    1.0780   
    10. B(O   7,H   2)                0.9744 -0.000023  0.0001    0.9746   
    11. B(C   8,O   7)                1.3276 -0.000496  0.0022    1.3297   
    12. B(H   9,C   8)                1.1128 -0.000002  0.0003    1.1131   
    13. B(O  10,C   8)                1.1886  0.000186 -0.0003    1.1883   
    14. A(H   1,C   0,H   5)          115.94  0.000092   -0.14    115.80   
    15. A(H   2,C   0,H   5)           76.66 -0.000047    0.15     76.81   
    16. A(H   1,C   0,C   3)          121.52 -0.000130    0.51    122.03   
    17. A(H   2,C   0,C   3)           78.19 -0.000073    0.27     78.46   
    18. A(C   3,C   0,H   5)          122.51  0.000035   -0.37    122.14   
    19. A(H   1,C   0,H   2)          118.58  0.000237   -0.68    117.90   
    20. A(H   5,H   2,O   7)          154.56  0.000060   -0.16    154.40   
    21. A(C   0,H   2,H   5)           27.95 -0.000029    0.11     28.06   
    22. A(H   4,H   2,H   5)           63.55  0.000045   -0.19     63.36   
    23. A(H   4,H   2,O   7)          127.44 -0.000091    0.30    127.74   
    24. A(C   0,H   2,H   4)           53.20  0.000022    0.02     53.22   
    25. A(C   3,H   2,H   5)           54.64  0.000008   -0.01     54.63   
    26. A(C   0,H   2,C   3)           33.43  0.000010    0.05     33.49   
    27. A(C   3,H   2,O   7)          145.93 -0.000077    0.22    146.14   
    28. A(C   3,H   2,H   4)           25.86  0.000011    0.00     25.87   
    29. A(H   2,C   3,H   4)           82.67 -0.000018    0.13     82.80   
    30. A(C   0,C   3,H   2)           68.38  0.000063   -0.32     68.05   
    31. A(H   4,C   3,H   6)          115.80 -0.000044    0.14    115.95   
    32. A(C   0,C   3,H   6)          121.78  0.000009    0.04    121.82   
    33. A(C   0,C   3,H   4)          122.39  0.000031   -0.17    122.22   
    34. A(H   2,C   3,H   6)          123.07  0.000108   -0.27    122.80   
    35. A(H   2,H   4,C   3)           71.47  0.000007   -0.14     71.33   
    36. A(C   0,H   5,H   2)           75.40  0.000076   -0.26     75.13   
    37. A(H   2,O   7,C   8)          113.43  0.000464   -0.36    113.07   
    38. A(H   9,C   8,O  10)          122.54 -0.000158    0.13    122.66   
    39. A(O   7,C   8,O  10)          123.95 -0.000110    0.08    124.04   
    40. A(O   7,C   8,H   9)          113.51  0.000268   -0.21    113.30   
    41. D(H   5,H   2,C   0,C   3)    127.88  0.000094   -0.61    127.26   
    42. D(H   4,H   2,C   0,H   5)   -102.90 -0.000097    0.65   -102.25   
    43. D(H   5,H   2,C   0,H   1)   -112.51 -0.000074    0.07   -112.44   
    44. D(H   4,H   2,C   0,H   1)    144.59 -0.000172    0.72    145.31   
    45. D(H   4,H   2,C   0,C   3)     24.97 -0.000003    0.04     25.02   
    46. D(C   3,H   2,C   0,H   5)   -127.88 -0.000094    0.61   -127.26   
    47. D(C   3,H   2,C   0,H   1)    119.62 -0.000169    0.68    120.30   
    48. D(H   2,C   3,C   0,H   1)   -116.43 -0.000226    0.60   -115.83   
    49. D(H   6,C   3,C   0,H   5)   -177.97  0.000020    0.12   -177.85   
    50. D(H   2,C   3,C   0,H   5)     65.61 -0.000138    0.61     66.22   
    51. D(H   6,C   3,H   2,H   4)    116.10 -0.000046    0.21    116.31   
    52. D(H   6,C   3,C   0,H   2)    116.42  0.000158   -0.49    115.93   
    53. D(H   6,C   3,C   0,H   1)     -0.01 -0.000069    0.12      0.10   
    54. D(H   4,C   3,H   2,C   0)    129.19  0.000016   -0.12    129.07   
    55. D(H   4,C   3,C   0,H   2)    -65.54 -0.000008   -0.02    -65.57   
    56. D(H   4,C   3,H   2,O   7)    -55.79  0.000053   -0.43    -56.23   
    57. D(H   4,C   3,C   0,H   5)      0.07 -0.000146    0.58      0.65   
    58. D(C   0,C   3,H   2,H   5)    -26.97  0.000068   -0.35    -27.33   
    59. D(C   0,C   3,H   2,H   4)   -129.19 -0.000016    0.12   -129.07   
    60. D(H   4,C   3,H   2,H   5)    102.22  0.000084   -0.47    101.74   
    61. D(H   6,C   3,H   2,O   7)     60.30  0.000007   -0.22     60.09   
    62. D(H   6,C   3,H   2,C   0)   -114.71 -0.000030    0.09   -114.62   
    63. D(H   4,C   3,C   0,H   1)    178.02 -0.000234    0.58    178.61   
    64. D(H   6,C   3,H   2,H   5)   -141.68  0.000038   -0.26   -141.94   
    65. D(C   0,C   3,H   2,O   7)    175.01  0.000037   -0.31    174.70   
    66. D(H   2,H   4,C   3,H   6)   -123.29 -0.000105    0.21   -123.07   
    67. D(H   2,H   4,C   3,C   0)     58.56  0.000051   -0.22     58.34   
    68. D(C   3,H   4,H   2,H   5)    -62.91  0.000068   -0.37    -63.28   
    69. D(C   3,H   4,H   2,C   0)    -32.23  0.000010   -0.10    -32.33   
    70. D(C   3,H   4,H   2,O   7)    144.30 -0.000005   -0.15    144.15   
    71. D(H   2,H   5,C   0,H   1)    115.56  0.000240   -0.69    114.87   
    72. D(C   0,H   5,H   2,H   4)     60.66 -0.000050    0.47     61.13   
    73. D(C   0,H   5,H   2,C   3)     32.23 -0.000040    0.36     32.58   
    74. D(C   0,H   5,H   2,O   7)   -177.00 -0.000131    0.66   -176.34   
    75. D(H   2,H   5,C   0,C   3)    -66.38  0.000152   -0.68    -67.06   
    76. D(C   8,O   7,H   2,H   5)   -164.10  0.000085   -0.10   -164.19   
    77. D(C   8,O   7,H   2,H   4)    -56.42  0.000073   -0.13    -56.54   
    78. D(C   8,O   7,H   2,C   3)    -29.39  0.000030    0.14    -29.25   
    79. D(C   8,O   7,C   0,H   5)   -161.91 -0.000034    0.44   -161.47   
    80. D(C   8,O   7,C   0,C   3)    -34.31  0.000064   -0.20    -34.51   
    81. D(C   8,O   7,C   0,H   1)     85.19 -0.000115    0.52     85.70   
    82. D(O  10,C   8,O   7,H   2)    179.21 -0.000158    1.07    180.28   
    83. D(H   9,C   8,O   7,H   2)     -0.75 -0.000048    0.53     -0.22   
    ----------------------------------------------------------------------------

         *************************************************************
         *                GEOMETRY OPTIMIZATION CYCLE   3            *
         *************************************************************
      -----------------------------------------------------------      
     |                   =====================                   |     
     |                           x T B                           |     
     |                   =====================                   |     
     |                         S. Grimme                         |     
     |          Mulliken Center for Theoretical Chemistry        |     
     |                    University of Bonn                     |     
     |                 Version 6.0.1 (SAW181210)                 |     
      -----------------------------------------------------------      

   This program is distributed in the hope that it will be useful,
   but WITHOUT ANY WARRANTY; without even the implied warranty of
   MERCHANTABILITY or FITNESS FOR A PARTICULAR PURPOSE.
   
   FOR NON-COMMERCIAL, ACADEMIA USE ONLY.
   
   Cite this work as:
   S. Grimme, C. Bannwarth, P. Shushkov, J. Comput. Theory Chem., 2017,
   13, 1989-2009.
   C. Bannwarth, S. Ehlert and S. Grimme., ChemRxiv, 2018, preprint.
   http://doi.org/10.26434/chemrxiv.7246238.v1
   
   for sTDA-xTB:
   S. Grimme and C. Bannwarth, J. Chem. Phys., 2016, 145, 054103.
   
   in the mass-spec context:
   V. Asgeirsson, C. Bauer and S. Grimme, Chem. Sci., 2017, 8, 4879.
   
   if GBSA is used:
   P. Shushkov, F. März and S. Grimme, unpublished.
   
   for ANC optimizer:
   S. Grimme, unpublished.
   Rational Function algorithm used in ANCopt:
   F. Eckert, P. Pulay, H.-J. Werner, J. Comput. Chem., 1997, 18, 1473.
   
   with help from (in alphabetical order)
   C. Bannwarth, F. Bohle, G. Brandenburg, E. Caldeweyher, M. Checinski,
   S. Dohm, S. Ehlert, S. Ehrlich, F. März, H. Neugebauer, J. Pisarek,
   P. Pracht, P. Shushkov, and S. Spicher.
   
 * started run on 2020/12/16 at 16:17:13.359     
========================================================================
 # omp threads = 1
========================================================================
calculation namespace      : orca
number of atoms            : 11
number of electrons        : 30
charge                     : 0
spin                       : .0
first test random number   : .2225

########################################################################
# WARNING! Please study the warnings concerning your input carefully
#  - XTBHOME is not set, using HOME instead
#  - XTBPATH is not set, using XTBHOME instead
########################################################################

           ------------------------------------------------- 
          |                 G F N 2 - x T B                 |
          | Geometry, Frequencies, Noncovalent interactions |
          |            JCTC 2018 parametrisation            |
           ------------------------------------------------- 
      method parameters     
 k(s)        :  1.8500
 k(p)        :  2.2300
 k(d)        :  2.2300
 k(f)        :  2.0000
 kEN (H0ij)  : -2.0000
 D4 a1       :  0.5200
 D4 a2       :  5.0000
 D4 s6       :  1.0000
 D4 s8       :  2.7000
 D4 s9       :  5.0000
 alphaj      :  2.0000


            Z     q(EN)     CN     RAES       Cart. coordinates
     1  C   4.0   -0.07    3.02    3.02     1.06823     1.91125    -1.84006
     2  H   1.0    0.07    1.00    1.43     3.02362     2.28457    -2.27467
     3  H   1.0    0.12    1.06    1.44    -0.89639    -1.07045    -4.03936
     4  C   4.0   -0.08    3.01    3.02     0.39305     0.32453    -0.03731
     5  H   1.0    0.07    1.00    1.43    -1.56203    -0.02206     0.43050
     6  H   1.0    0.07    1.00    1.43    -0.30033     2.96204    -2.93014
     7  H   1.0    0.06    1.00    1.43     1.76883    -0.67103     1.08800
     8  O   6.0   -0.22    2.03    1.83    -1.67750    -2.42873    -5.00714
     9  C   4.0    0.19    2.99    3.02    -1.30123    -4.69912    -3.99823
    10  H   1.0    0.05    0.99    1.43    -0.15668    -4.64646    -2.23427
    11  O   6.0   -0.25    1.10    1.80    -2.08201    -6.61120    -4.87960

  Z AO/shell   Hii/eV     exponent
  1     Wed Apr 25 08:07:45 CEST 2018   EN: 2.200 GM2: 0.406  GM3: 0.0800  RAES: 1.40
     1s    -10.707211    1.230000
  6     Wed Apr 25 08:07:45 CEST 2018   EN: 2.550 GM2: 0.538  GM3: 0.1500  RAES: 3.00
     2s    -13.970922    2.096432
     2p    -10.063292    1.800000
  8     Wed Apr 25 08:07:45 CEST 2018   EN: 3.440 GM2: 0.452  GM3:-0.0517  RAES: 1.80
     2s    -20.229985    2.439742
     2p    -15.503117    2.137023
 no old-style atom pair restraining (fixing) potential

molecular fragmentation (1/2 indicates fragments):
11211112222
# atoms in fragment 1/2:     6     5
 fragment masses (1/2) :       28.05       46.03
CMA distance (Bohr)    :   7.130
constraining FC (au)   :  0.0500
           ------------------------------------------------- 
          |        Self-Consistent Charge Iterations        |
           ------------------------------------------------- 

 Ncao       : 26
 Nao        : 26
 Nshell     : 16
 Nel        : 30
 T(el)      :   300.0
 intcut     :    25.0
 scfconv/Eh :  0.100E-05
   qconv/e  :  0.100E-03
 intneglect :  0.100E-07
 broydamp   :      0.250
 iter      E             dE          RMSdq      gap      omega  full diag
   1    -17.6956601 -0.176957E+02  0.554E+00    5.38       0.0  T
   2    -17.7539618 -0.583016E-01  0.355E+00    5.21       1.0  T
   3    -17.7574653 -0.350355E-02  0.159E+00    4.85       1.0  T
   4    -17.7590623 -0.159699E-02  0.351E-01    5.02       1.0  T
   5    -17.7594554 -0.393059E-03  0.193E-01    4.98       1.0  T
   6    -17.7596212 -0.165767E-03  0.542E-02    5.01       1.0  T
   7    -17.7596245 -0.334226E-05  0.297E-02    5.02       1.0  T
   8    -17.7596260 -0.154692E-05  0.192E-02    5.02       1.6  T
   9    -17.7596277 -0.167696E-05  0.558E-03    5.02       5.4  T
  10    -17.7596279 -0.190385E-06  0.208E-03    5.01      14.5  T
  11    -17.7596279 -0.156557E-07  0.576E-04    5.01      52.3  T
  12    -17.7596279 -0.385810E-09  0.352E-04    5.01      85.7  T
speedup  1.00
cpu  time for SCC    0.00 s
wall time for SCC    0.00 s

   *** convergence criteria satisfied after 12 iterations ***

          eigenvalues
 #    :           3          4          5          6          7          8          9         10
 occ. :        2.000      2.000      2.000      2.000      2.000      2.000      2.000      2.000
 eps  :       -17.856    -17.546    -17.152    -15.956    -15.817    -15.314    -14.673    -14.177
 #    :          11         12         13         14         15         16         17         18
 occ. :        2.000      2.000      2.000      2.000      2.000      0.000      0.000      0.000
 eps  :       -13.708    -13.253    -12.576    -12.291    -11.721     -6.707     -6.632      1.639
 #    :          19         20         21         22         23         24         25         26
 occ. :        0.000      0.000      0.000      0.000      0.000      0.000      0.000      0.000
 eps  :         2.833      3.216      3.475      4.916      8.435     11.006     15.282     17.438


   #   Z            q   n(s)   n(p)   n(d)      C6AA      α(0)
   1   6 C     -0.087  1.088  2.999  0.000    30.165     9.000
   2   1 H      0.051  0.949  0.000  0.000     2.302     2.372
   3   1 H      0.328  0.672  0.000  0.000     0.644     1.260
   4   6 C     -0.083  1.088  2.994  0.000    30.059     8.984
   5   1 H      0.047  0.953  0.000  0.000     2.353     2.399
   6   1 H      0.048  0.952  0.000  0.000     2.349     2.397
   7   1 H      0.050  0.950  0.000  0.000     2.319     2.382
   8   8 O     -0.358  1.689  4.669  0.000    20.054     6.045
   9   6 C      0.344  1.018  2.638  0.000    21.165     7.525
  10   1 H     -0.006  1.006  0.000  0.000     3.168     2.784
  11   8 O     -0.334  1.720  4.614  0.000    20.412     6.057

 Mol. C6AA /au·bohr⁶  :       1098.901230
 Mol. C8AA /au·bohr⁸  :      23683.800708
 Mol. α(0) /au        :         51.205996

 
 Wiberg/Mayer (AO) data. WBOs > 0.1 written file <wbo>
 largest (>0.05) Wiberg bond orders for each atom
           total WBO             WBO to atom ...
     1  C   3.991    C    4 2.013    H    2 0.976    H    6 0.973
     2  H   0.997    C    1 0.976
     3  H   0.893    O    8 0.841
     4  C   3.991    C    1 2.013    H    7 0.976    H    5 0.975
     5  H   0.998    C    4 0.975
     6  H   0.998    C    1 0.973
     7  H   0.997    C    4 0.976
     8  O   2.230    C    9 1.163    H    3 0.841    O   11 0.185
     9  C   3.925    O   11 1.843    O    8 1.163    H   10 0.917
    10  H   1.000    C    9 0.917    O   11 0.056
    11  O   2.101    C    9 1.843    O    8 0.185    H   10 0.056
 MOs/occ written to file <molden.input>
 
molecular dipole:
                 x           y           z       tot (Debye)
 q only:        0.587       1.173       0.720
   full:        0.789       1.430       1.004       4.873
molecular quadrupole (traceless):
                xx          xy          yy          xz          yz          zz
 q only:        6.113      -5.370      -5.177      -5.260     -11.605      -0.936
  q+dip:        9.098      -7.078      -7.375      -7.002     -15.767      -1.723
   full:        8.893      -7.223      -7.054      -7.523     -14.989      -1.839
speedup  0.98
cpu  time for grad    0.01 s
wall time for grad    0.01 s

SCC energy    :     -17.7596279
rep           :       0.2113891
ES            :       0.0439087
AES           :       0.0033298
AXC           :       0.0059935
disp          :      -0.0045404
XB            :       0.0000000
fix           :       0.0000000
grad norm     :       0.0020556
total E       :     -17.5482346
atomizationE  :       2.7871140     1748.94
(atE without considering molecular charge,
 total energy contains solvation terms)
H-L gap (eV)  :          5.0136

------------------------------------------------------------------------
 * finished run on 2020/12/16 at 16:17:13.384     
------------------------------------------------------------------------
 total:
 * wall-time:     0 d,  0 h,  0 min,  0.023 sec
 *  cpu-time:     0 d,  0 h,  0 min,  0.017 sec
 * ratio c/w:     0.747 speedup
 SCF:
 * wall-time:     0 d,  0 h,  0 min,  0.009 sec
 *  cpu-time:     0 d,  0 h,  0 min,  0.009 sec
 * ratio c/w:     0.998 speedup


-------------------------   --------------------
FINAL SINGLE POINT ENERGY       -17.548234609190
-------------------------   --------------------

------------------------------------------------------------------------------
                         ORCA GEOMETRY RELAXATION STEP
------------------------------------------------------------------------------

Reading the OPT-File                    .... done
Getting information on internals        .... done
Copying old internal coords+grads       .... done
Making the new internal coordinates     .... (new redundants).... done
Validating the new internal coordinates .... (new redundants).... done
Calculating the B-matrix                .... done
Calculating the G,G- and P matrices     .... done
Transforming gradient to internals      .... done
Projecting the internal gradient        .... done
Number of atoms                         ....  11
Number of internal coordinates          ....  83
Current Energy                          ....   -17.548234609 Eh
Current gradient norm                   ....     0.002055603 Eh/bohr
Maximum allowed component of the step   ....  0.300
Current trust radius                    ....  0.300
Updating the Hessian (BFGS)             .... done
Forming the augmented Hessian           .... done
Diagonalizing the augmented Hessian     .... done
Last element of RFO vector              ....  0.998943721
Lowest eigenvalues of augmented Hessian:
 -0.000032147  0.007058433  0.011524131  0.032171675  0.036446236
Length of the computed step             ....  0.045999010
The final length of the internal step   ....  0.045999010
Converting the step to cartesian space:
 Initial RMS(Int)=    0.0050490473
Transforming coordinates:
 Iter   0:  RMS(Cart)=    0.0090973518 RMS(Int)=    0.6887878514
 Iter   1:  RMS(Cart)=    0.0000891010 RMS(Int)=    0.0000634187
 Iter   2:  RMS(Cart)=    0.0000020216 RMS(Int)=    0.0000007593
 Iter   3:  RMS(Cart)=    0.0000000437 RMS(Int)=    0.0000000305
done
Storing new coordinates                 .... done

                                .--------------------.
          ----------------------|Geometry convergence|-------------------------
          Item                value                   Tolerance       Converged
          ---------------------------------------------------------------------
          Energy change      -0.0000231028            0.0000010000      NO
          RMS gradient        0.0001801456            0.0000300000      NO
          MAX gradient        0.0008228906            0.0001000000      NO
          RMS step            0.0050490473            0.0006000000      NO
          MAX step            0.0218022806            0.0010000000      NO
          ........................................................
          Max(Bonds)      0.0059      Max(Angles)    0.53
          Max(Dihed)        1.25      Max(Improp)    0.00
          ---------------------------------------------------------------------

The optimization has not yet converged - more geometry cycles are needed


    ---------------------------------------------------------------------------
                         Redundant Internal Coordinates
                            (Angstroem and degrees)

        Definition                    Value    dE/dq     Step     New-Value
    ----------------------------------------------------------------------------
     1. B(H   1,C   0)                1.0783  0.000377 -0.0003    1.0779   
     2. B(H   2,C   0)                2.2192  0.000182 -0.0059    2.2133   
     3. B(C   3,H   2)                2.3443 -0.000063  0.0004    2.3447   
     4. B(C   3,C   0)                1.3201 -0.000006 -0.0000    1.3201   
     5. B(H   4,H   2)                2.4549 -0.000193  0.0038    2.4588   
     6. B(H   4,C   3)                1.0795  0.000275 -0.0001    1.0794   
     7. B(H   5,H   2)                2.2355  0.000034 -0.0027    2.2328   
     8. B(H   5,C   0)                1.0800  0.000328  0.0002    1.0802   
     9. B(H   6,C   3)                1.0780 -0.000001  0.0000    1.0781   
    10. B(O   7,H   2)                0.9746 -0.000037  0.0001    0.9747   
    11. B(C   8,O   7)                1.3297  0.000823  0.0008    1.3305   
    12. B(H   9,C   8)                1.1131  0.000188 -0.0001    1.1129   
    13. B(O  10,C   8)                1.1883  0.000190 -0.0003    1.1880   
    14. A(H   1,C   0,H   5)          115.80  0.000007   -0.08    115.72   
    15. A(H   2,C   0,H   5)           76.81 -0.000107    0.14     76.95   
    16. A(H   1,C   0,C   3)          122.03  0.000098    0.28    122.31   
    17. A(H   2,C   0,C   3)           78.46 -0.000092    0.25     78.71   
    18. A(C   3,C   0,H   5)          122.14 -0.000105   -0.20    121.94   
    19. A(H   1,C   0,H   2)          117.90  0.000166   -0.53    117.37   
    20. A(H   5,H   2,O   7)          154.40  0.000018   -0.12    154.28   
    21. A(C   0,H   2,H   5)           28.06  0.000068    0.06     28.12   
    22. A(H   4,H   2,H   5)           63.36  0.000082   -0.18     63.18   
    23. A(H   4,H   2,O   7)          127.74 -0.000148    0.27    128.02   
    24. A(C   0,H   2,H   4)           53.22  0.000080   -0.04     53.18   
    25. A(C   3,H   2,H   5)           54.63  0.000046   -0.03     54.60   
    26. A(C   0,H   2,C   3)           33.49 -0.000005    0.03     33.51   
    27. A(C   3,H   2,O   7)          146.14 -0.000088    0.18    146.33   
    28. A(C   3,H   2,H   4)           25.87  0.000078   -0.03     25.83   
    29. A(H   2,C   3,H   4)           82.80 -0.000117    0.19     83.00   
    30. A(C   0,C   3,H   2)           68.05  0.000096   -0.28     67.77   
    31. A(H   4,C   3,H   6)          115.95  0.000032    0.09    116.04   
    32. A(C   0,C   3,H   6)          121.82 -0.000078    0.05    121.86   
    33. A(C   0,C   3,H   4)          122.22  0.000044   -0.13    122.09   
    34. A(H   2,C   3,H   6)          122.80  0.000091   -0.23    122.57   
    35. A(H   2,H   4,C   3)           71.33  0.000038   -0.16     71.17   
    36. A(C   0,H   5,H   2)           75.13  0.000039   -0.20     74.94   
    37. A(H   2,O   7,C   8)          113.07 -0.000269   -0.19    112.88   
    38. A(H   9,C   8,O  10)          122.66  0.000003    0.08    122.74   
    39. A(O   7,C   8,O  10)          124.04  0.000182    0.03    124.06   
    40. A(O   7,C   8,H   9)          113.30 -0.000196   -0.11    113.20   
    41. D(H   5,H   2,C   0,C   3)    127.26 -0.000029   -0.40    126.86   
    42. D(H   4,H   2,C   0,H   5)   -102.25  0.000047    0.43   -101.82   
    43. D(H   5,H   2,C   0,H   1)   -112.44  0.000048    0.01   -112.44   
    44. D(H   4,H   2,C   0,H   1)    145.31  0.000096    0.44    145.75   
    45. D(H   4,H   2,C   0,C   3)     25.02  0.000018    0.03     25.05   
    46. D(C   3,H   2,C   0,H   5)   -127.26  0.000029    0.40   -126.86   
    47. D(C   3,H   2,C   0,H   1)    120.29  0.000078    0.41    120.70   
    48. D(H   2,C   3,C   0,H   1)   -115.83 -0.000149    0.46   -115.37   
    49. D(H   6,C   3,C   0,H   5)   -177.85  0.000011    0.06   -177.79   
    50. D(H   2,C   3,C   0,H   5)     66.22 -0.000156    0.48     66.69   
    51. D(H   6,C   3,H   2,H   4)    116.31 -0.000022    0.20    116.51   
    52. D(H   6,C   3,C   0,H   2)    115.93  0.000167   -0.42    115.51   
    53. D(H   6,C   3,C   0,H   1)      0.10  0.000018    0.04      0.14   
    54. D(H   4,C   3,H   2,C   0)    129.07  0.000078   -0.13    128.94   
    55. D(H   4,C   3,C   0,H   2)    -65.57  0.000110   -0.12    -65.69   
    56. D(H   4,C   3,H   2,O   7)    -56.23  0.000028   -0.33    -56.56   
    57. D(H   4,C   3,C   0,H   5)      0.65 -0.000046    0.36      1.01   
    58. D(C   0,C   3,H   2,H   5)    -27.33 -0.000061   -0.23    -27.55   
    59. D(C   0,C   3,H   2,H   4)   -129.07 -0.000078    0.13   -128.94   
    60. D(H   4,C   3,H   2,H   5)    101.74  0.000017   -0.36    101.38   
    61. D(H   6,C   3,H   2,O   7)     60.08  0.000006   -0.13     59.95   
    62. D(H   6,C   3,H   2,C   0)   -114.62  0.000056    0.06   -114.55   
    63. D(H   4,C   3,C   0,H   1)    178.61 -0.000039    0.34    178.95   
    64. D(H   6,C   3,H   2,H   5)   -141.94 -0.000004   -0.17   -142.11   
    65. D(C   0,C   3,H   2,O   7)    174.70 -0.000050   -0.19    174.51   
    66. D(H   2,H   4,C   3,H   6)   -123.08 -0.000049    0.15   -122.93   
    67. D(H   2,H   4,C   3,C   0)     58.34  0.000006   -0.13     58.20   
    68. D(C   3,H   4,H   2,H   5)    -63.28  0.000025   -0.29    -63.57   
    69. D(C   3,H   4,H   2,C   0)    -32.33  0.000082   -0.11    -32.44   
    70. D(C   3,H   4,H   2,O   7)    144.15  0.000002   -0.12    144.03   
    71. D(H   2,H   5,C   0,H   1)    114.87  0.000139   -0.53    114.34   
    72. D(C   0,H   5,H   2,H   4)     61.13  0.000053    0.29     61.41   
    73. D(C   0,H   5,H   2,C   3)     32.58 -0.000011    0.23     32.82   
    74. D(C   0,H   5,H   2,O   7)   -176.34 -0.000118    0.48   -175.86   
    75. D(H   2,H   5,C   0,C   3)    -67.05  0.000147   -0.54    -67.60   
    76. D(C   8,O   7,H   2,H   5)   -164.19  0.000099   -0.09   -164.28   
    77. D(C   8,O   7,H   2,H   4)    -56.54 -0.000012   -0.08    -56.63   
    78. D(C   8,O   7,H   2,C   3)    -29.25  0.000003    0.10    -29.15   
    79. D(C   8,O   7,C   0,H   5)   -161.47  0.000006    0.30   -161.17   
    80. D(C   8,O   7,C   0,C   3)    -34.50 -0.000024   -0.12    -34.62   
    81. D(C   8,O   7,C   0,H   1)     85.70  0.000040    0.32     86.02   
    82. D(O  10,C   8,O   7,H   2)   -179.72  0.000789   -0.47   -180.19   
    83. D(H   9,C   8,O   7,H   2)     -0.22 -0.000627    1.25      1.03   
    ----------------------------------------------------------------------------

         *************************************************************
         *                GEOMETRY OPTIMIZATION CYCLE   4            *
         *************************************************************
      -----------------------------------------------------------      
     |                   =====================                   |     
     |                           x T B                           |     
     |                   =====================                   |     
     |                         S. Grimme                         |     
     |          Mulliken Center for Theoretical Chemistry        |     
     |                    University of Bonn                     |     
     |                 Version 6.0.1 (SAW181210)                 |     
      -----------------------------------------------------------      

   This program is distributed in the hope that it will be useful,
   but WITHOUT ANY WARRANTY; without even the implied warranty of
   MERCHANTABILITY or FITNESS FOR A PARTICULAR PURPOSE.
   
   FOR NON-COMMERCIAL, ACADEMIA USE ONLY.
   
   Cite this work as:
   S. Grimme, C. Bannwarth, P. Shushkov, J. Comput. Theory Chem., 2017,
   13, 1989-2009.
   C. Bannwarth, S. Ehlert and S. Grimme., ChemRxiv, 2018, preprint.
   http://doi.org/10.26434/chemrxiv.7246238.v1
   
   for sTDA-xTB:
   S. Grimme and C. Bannwarth, J. Chem. Phys., 2016, 145, 054103.
   
   in the mass-spec context:
   V. Asgeirsson, C. Bauer and S. Grimme, Chem. Sci., 2017, 8, 4879.
   
   if GBSA is used:
   P. Shushkov, F. März and S. Grimme, unpublished.
   
   for ANC optimizer:
   S. Grimme, unpublished.
   Rational Function algorithm used in ANCopt:
   F. Eckert, P. Pulay, H.-J. Werner, J. Comput. Chem., 1997, 18, 1473.
   
   with help from (in alphabetical order)
   C. Bannwarth, F. Bohle, G. Brandenburg, E. Caldeweyher, M. Checinski,
   S. Dohm, S. Ehlert, S. Ehrlich, F. März, H. Neugebauer, J. Pisarek,
   P. Pracht, P. Shushkov, and S. Spicher.
   
 * started run on 2020/12/16 at 16:17:13.472     
========================================================================
 # omp threads = 1
========================================================================
calculation namespace      : orca
number of atoms            : 11
number of electrons        : 30
charge                     : 0
spin                       : .0
first test random number   : .1241

########################################################################
# WARNING! Please study the warnings concerning your input carefully
#  - XTBHOME is not set, using HOME instead
#  - XTBPATH is not set, using XTBHOME instead
########################################################################

           ------------------------------------------------- 
          |                 G F N 2 - x T B                 |
          | Geometry, Frequencies, Noncovalent interactions |
          |            JCTC 2018 parametrisation            |
           ------------------------------------------------- 
      method parameters     
 k(s)        :  1.8500
 k(p)        :  2.2300
 k(d)        :  2.2300
 k(f)        :  2.0000
 kEN (H0ij)  : -2.0000
 D4 a1       :  0.5200
 D4 a2       :  5.0000
 D4 s6       :  1.0000
 D4 s8       :  2.7000
 D4 s9       :  5.0000
 alphaj      :  2.0000


            Z     q(EN)     CN     RAES       Cart. coordinates
     1  C   4.0   -0.07    3.02    3.02     1.06638     1.90402    -1.84187
     2  H   1.0    0.07    1.00    1.43     3.01740     2.27246    -2.29685
     3  H   1.0    0.12    1.06    1.44    -0.89187    -1.06843    -4.03790
     4  C   4.0   -0.08    3.01    3.02     0.39437     0.32326    -0.03275
     5  H   1.0    0.07    1.00    1.43    -1.56088    -0.01677     0.43820
     6  H   1.0    0.07    1.00    1.43    -0.30918     2.95839    -2.92035
     7  H   1.0    0.06    1.00    1.43     1.77094    -0.67816     1.08639
     8  O   6.0   -0.22    2.03    1.83    -1.66868    -2.42416    -5.01310
     9  C   4.0    0.19    2.99    3.02    -1.28707    -4.69578    -4.00540
    10  H   1.0    0.05    0.99    1.43    -0.18193    -4.63353    -2.21709
    11  O   6.0   -0.25    1.10    1.80    -2.07191    -6.60797    -4.88155

  Z AO/shell   Hii/eV     exponent
  1     Wed Apr 25 08:07:45 CEST 2018   EN: 2.200 GM2: 0.406  GM3: 0.0800  RAES: 1.40
     1s    -10.707211    1.230000
  6     Wed Apr 25 08:07:45 CEST 2018   EN: 2.550 GM2: 0.538  GM3: 0.1500  RAES: 3.00
     2s    -13.970922    2.096432
     2p    -10.063292    1.800000
  8     Wed Apr 25 08:07:45 CEST 2018   EN: 3.440 GM2: 0.452  GM3:-0.0517  RAES: 1.80
     2s    -20.229985    2.439742
     2p    -15.503117    2.137023
 no old-style atom pair restraining (fixing) potential

molecular fragmentation (1/2 indicates fragments):
11211112222
# atoms in fragment 1/2:     6     5
 fragment masses (1/2) :       28.05       46.03
[...]
     13      -0.388945   0.032732   0.447417   0.100875  -0.203155   0.309374
     14       0.117982   0.040955   0.396341   0.152058  -0.123296   0.249597
     15      -0.381591  -0.156799  -0.035991  -0.141274  -0.043083   0.198125
     16      -0.050242   0.131830  -0.065467  -0.162005  -0.204710   0.479142
     17       0.175995   0.039438  -0.000565  -0.054933  -0.121973   0.385744
     18       0.310455   0.164570   0.055660   0.053541   0.205496  -0.176095
     19      -0.030961   0.260360   0.077022   0.165910   0.402722  -0.392413
     20      -0.164376   0.001676   0.093566   0.172716   0.357589  -0.302239
     21       0.192547   0.173264   0.017559   0.034579  -0.111662  -0.019133
     22       0.006333  -0.091121  -0.005061  -0.002552  -0.069380  -0.042841
     23      -0.150787   0.173809  -0.042487  -0.052529  -0.172075  -0.078484
     24      -0.082459  -0.043544  -0.091407   0.190586  -0.066579   0.012104
     25       0.050614  -0.210713   0.003385  -0.005671  -0.018642  -0.023042
     26       0.058233  -0.020492   0.018818  -0.121144  -0.053445  -0.033337
     27      -0.344897  -0.105884  -0.350381   0.685468  -0.126132   0.063473
     28       0.120104  -0.466043   0.022166  -0.025423   0.107608   0.022364
     29       0.198446   0.019332   0.158035  -0.386963  -0.025309  -0.064301
     30      -0.055778  -0.163090   0.069008  -0.162178   0.030530  -0.012611
     31       0.021537  -0.065498  -0.007407   0.010814  -0.085966  -0.048616
     32       0.097168  -0.225663  -0.066383   0.080183   0.016514   0.033846
                 12         13         14         15         16         17    
      0       0.004567   0.003499  -0.037783  -0.047456  -0.000134   0.026478
      1       0.001409   0.001890   0.016622  -0.105551  -0.000209   0.057780
      2       0.000469   0.007524  -0.000669  -0.085002  -0.000131   0.048119
      3      -0.003447  -0.002038   0.113650   0.158200  -0.002520  -0.199504
      4      -0.019578  -0.010360  -0.323443   0.357978  -0.003662  -0.432685
      5      -0.005764  -0.000349   0.360676   0.280165  -0.004170  -0.356920
      6      -0.867144  -0.341756   0.019200  -0.049345  -0.032176   0.012771
      7       0.052397   0.166384   0.002761   0.034540   0.001542  -0.010444
      8       0.481691  -0.577114  -0.014174   0.002016   0.018450  -0.007034
      9       0.001272   0.000695  -0.036766   0.052357   0.000700   0.027640
     10      -0.002963  -0.000163   0.018626   0.112795   0.001148   0.059887
     11      -0.003379  -0.001468   0.001104   0.082900   0.000750   0.045060
     12       0.000614  -0.000903   0.111946  -0.171338  -0.002855  -0.200790
     13      -0.018002  -0.007185  -0.331569  -0.366319  -0.010442  -0.434572
     14       0.003065  -0.004063   0.355777  -0.277745  -0.003924  -0.323681
     15       0.005760   0.002617   0.328718   0.163562   0.001297  -0.134256
     16      -0.017322   0.001789   0.124117   0.347334   0.000911  -0.284789
     17      -0.032227   0.006691  -0.355235   0.292412  -0.000838  -0.236910
     18       0.020209   0.003614   0.324555  -0.176841  -0.003429  -0.132331
     19       0.029139   0.001917   0.115364  -0.378939  -0.003657  -0.287286
     20       0.013027  -0.003717  -0.362010  -0.270535  -0.000406  -0.207730
     21       0.048085  -0.065920  -0.000569   0.001923   0.047380  -0.000830
     22      -0.000669  -0.332171   0.000132  -0.002119  -0.002476   0.005929
     23      -0.026295  -0.087745   0.000940   0.001154  -0.025994  -0.001053
     24       0.034697   0.178687  -0.000351   0.000781  -0.203948   0.002590
     25      -0.001123  -0.013868   0.000016  -0.000196   0.013027  -0.004082
     26      -0.020909   0.333329  -0.000274  -0.002022   0.109832   0.002500
     27       0.054152   0.152294   0.000247  -0.005640   0.851642  -0.006523
     28      -0.001171  -0.090706  -0.001587  -0.006633  -0.058320  -0.002741
     29      -0.031295   0.292387  -0.000175   0.002176  -0.457389   0.004886
     30      -0.028754  -0.059645   0.000201  -0.001060   0.054149  -0.000121
     31       0.001075   0.337389  -0.000500  -0.002413  -0.003371   0.000313
     32       0.017180  -0.149013  -0.000107   0.000147  -0.028683   0.000253
                 18         19         20         21         22         23    
      0       0.007907   0.005096   0.142327   0.003350   0.014396   0.002466
      1       0.007327  -0.005163  -0.066778   0.004917   0.029139   0.005482
      2       0.008573   0.003031   0.000748   0.007096  -0.049221  -0.008196
      3       0.132939   0.012942  -0.034986  -0.000831  -0.087670   0.030173
      4       0.311373   0.037461   0.294218  -0.012265   0.336779  -0.069835
      5       0.229534   0.016484  -0.383075   0.001959  -0.370057   0.073681
      6       0.004957  -0.270094   0.005181  -0.305613   0.002638   0.004747
      7      -0.050557   0.686372  -0.014794   0.646443   0.017283   0.011074
      8       0.046144  -0.561549   0.011476  -0.625466  -0.013911   0.009909
      9       0.003104  -0.005668  -0.142525   0.001138  -0.015759   0.003031
     10       0.011333  -0.000894   0.066281  -0.001612  -0.032004   0.007198
     11       0.007796  -0.005232  -0.001377  -0.001425   0.050343  -0.010550
     12       0.139213   0.020044   0.031717   0.004219   0.090076   0.020774
     13       0.292641   0.038828  -0.306275   0.020238  -0.310152  -0.038064
     14       0.228701   0.035552   0.375482  -0.000161   0.369619   0.041259
     15      -0.211390  -0.040478  -0.255271  -0.028432   0.315204  -0.073831
     16      -0.433082  -0.057738  -0.159569  -0.041934   0.145418  -0.024542
     17      -0.341320  -0.019851   0.387738  -0.029147  -0.364003   0.069648
     18      -0.188691   0.000576   0.261552  -0.008312  -0.297901  -0.045025
     19      -0.425920  -0.016940   0.176305  -0.014547  -0.130277  -0.016172
     20      -0.323084  -0.038698  -0.373244  -0.013715   0.363818   0.034771
     21      -0.001374  -0.000904   0.000340   0.065852   0.000366   0.013635
     22      -0.004857   0.175035  -0.004451  -0.116927  -0.000448  -0.003611
     23      -0.002859  -0.023418   0.001365   0.135084   0.001452   0.025617
     24      -0.001115   0.062067  -0.001993  -0.073570   0.001076   0.008022
     25       0.004939  -0.143649   0.004155   0.113942  -0.002302  -0.051866
     26      -0.001847   0.132757  -0.004196  -0.148911   0.001632   0.021874
     27       0.001321   0.034352  -0.000818  -0.049266   0.000505   0.053247
     28       0.001879  -0.184807   0.004255   0.054314   0.046204   0.979883
     29      -0.003448   0.088945  -0.002923  -0.100266   0.000791  -0.023964
     30       0.001610  -0.029974   0.000841   0.010470  -0.001590  -0.023160
     31       0.006273  -0.094348   0.002075  -0.012189  -0.002305  -0.020042
     32       0.002256  -0.044409   0.001283   0.020762  -0.002655  -0.040900
                 24         25         26         27         28         29    
      0       0.017672   0.104036   0.001913   0.000215   0.006270  -0.002613
      1       0.037474   0.217563   0.003908  -0.000016   0.038715  -0.004707
      2      -0.056033  -0.342284  -0.013299   0.000459  -0.050498   0.006925
      3       0.142590   0.293020   0.009872  -0.000406  -0.552154   0.138427
      4      -0.327057  -0.245057   0.003738  -0.000007   0.060483  -0.014183
      5       0.320426   0.123384   0.006138  -0.000101   0.234710  -0.060000
      6      -0.002489   0.001851  -0.093611   0.003106  -0.007678   0.005463
      7      -0.001226   0.031343   0.156164   0.009385  -0.014604   0.010844
      8      -0.000138   0.011951  -0.190488   0.005008  -0.014842   0.011348
      9       0.016238  -0.100954  -0.003958   0.000216   0.000195  -0.010785
     10       0.033756  -0.212549  -0.008457  -0.000014  -0.010737  -0.032636
     11      -0.055321   0.347020   0.009407  -0.000021   0.014478   0.051164
     12       0.154300  -0.301165  -0.004102   0.000540   0.093277   0.595704
     13      -0.329308   0.233124   0.007588   0.000376  -0.013143  -0.074796
     14       0.347630  -0.132871   0.005286   0.000069  -0.040265  -0.269056
     15      -0.344669  -0.379626  -0.004477  -0.001403   0.497747  -0.094531
     16      -0.099634   0.063225   0.010020   0.000965  -0.493749   0.092387
     17       0.313759   0.114945   0.005240  -0.001277   0.312402  -0.057463
     18      -0.354137   0.372017   0.009075  -0.002915  -0.116972  -0.478952
     19      -0.093401  -0.082271   0.003435   0.000830   0.110203   0.442927
     20       0.344154  -0.130362   0.005444  -0.002202  -0.077541  -0.306059
     21      -0.002378  -0.001897   0.008134  -0.002682   0.000572  -0.000410
     22       0.000837  -0.002629   0.051159   0.004125   0.001021  -0.000744
     23      -0.004459  -0.003703   0.008803  -0.005477   0.001003  -0.000742
     24      -0.001030   0.002892  -0.192961  -0.033962  -0.000026   0.000167
     25       0.008635   0.007448  -0.663559  -0.006340   0.000320  -0.000161
     26      -0.003470   0.004977  -0.280353  -0.062492  -0.000125   0.000351
     27      -0.010070   0.005084  -0.149950   0.472620   0.000552  -0.001551
     28      -0.165960  -0.014899   0.027868   0.011503  -0.000007   0.001235
     29       0.005070   0.005589  -0.280512   0.878173   0.001059  -0.002428
     30       0.003808  -0.002033   0.152955  -0.001854  -0.000037  -0.000025
     31       0.003254  -0.005810   0.437257  -0.000796  -0.000162   0.000018
     32       0.006809  -0.003125   0.232870  -0.003360  -0.000047  -0.000057
                  30         31         32    
      0      -0.066669   0.056963   0.000738
      1       0.026021  -0.025136  -0.001528
      2       0.006059  -0.001584  -0.003235
      3       0.564138  -0.422045   0.007730
      4      -0.035860   0.028783   0.002075
      5      -0.271642   0.200638   0.000817
      6      -0.004537   0.009110  -0.353383
      7      -0.005105   0.008238  -0.747274
      8      -0.004841   0.007926  -0.557997
      9       0.052810   0.069747  -0.000528
     10      -0.021729  -0.031255  -0.002336
     11      -0.003192  -0.000758   0.003034
     12      -0.427015  -0.504341   0.003229
     13       0.034800   0.043516  -0.000205
     14       0.218721   0.253828  -0.000535
     15       0.274000  -0.253139  -0.016483
     16      -0.300990   0.269715   0.026655
     17       0.207245  -0.181179  -0.007756
     18      -0.245104  -0.332638  -0.006338
     19       0.249932   0.331602   0.007588
     20      -0.188729  -0.244763  -0.003157
     21       0.000239  -0.000497   0.023061
     22       0.000389  -0.000574   0.044970
     23       0.000323  -0.000579   0.036663
     24      -0.000007   0.000230   0.000135
     25       0.000021  -0.000192   0.006073
     26       0.000004   0.000309  -0.000500
     27       0.000048  -0.001160   0.005510
     28       0.000004   0.000820   0.000620
     29       0.000096  -0.002509   0.010809
     30      -0.000006  -0.000030  -0.000656
     31      -0.000022   0.000041  -0.001861
     32      -0.000012  -0.000034  -0.000992


-----------
IR SPECTRUM  
-----------

 Mode    freq (cm**-1)   T**2         TX         TY         TZ
-------------------------------------------------------------------
   7:        52.96    0.000000  (  0.000000   0.000000   0.000000)
   8:        72.33    0.000000  (  0.000000   0.000000   0.000000)
   9:        88.82    0.000000  (  0.000000   0.000000   0.000000)
  10:       137.17    0.000000  (  0.000000   0.000000   0.000000)
  11:       153.73    0.000000  (  0.000000   0.000000   0.000000)
  12:       582.09    0.000000  (  0.000000   0.000000   0.000000)
  13:       620.07    0.000000  (  0.000000   0.000000   0.000000)
  14:       840.66    0.000000  (  0.000000   0.000000   0.000000)
  15:       885.62    0.000000  (  0.000000   0.000000   0.000000)
  16:       954.04    0.000000  (  0.000000   0.000000   0.000000)
  17:      1032.42    0.000000  (  0.000000   0.000000   0.000000)
  18:      1042.79    0.000000  (  0.000000   0.000000   0.000000)
  19:      1132.02    0.000000  (  0.000000   0.000000   0.000000)
  20:      1178.17    0.000000  (  0.000000   0.000000   0.000000)
  21:      1211.36    0.000000  (  0.000000   0.000000   0.000000)
  22:      1386.25    0.000000  (  0.000000   0.000000   0.000000)
  23:      1412.11    0.000000  (  0.000000   0.000000   0.000000)
  24:      1414.89    0.000000  (  0.000000   0.000000   0.000000)
  25:      1685.45    0.000000  (  0.000000   0.000000   0.000000)
  26:      1823.06    0.000000  (  0.000000   0.000000   0.000000)
  27:      2710.78    0.000000  (  0.000000   0.000000   0.000000)
  28:      3089.24    0.000000  (  0.000000   0.000000   0.000000)
  29:      3096.24    0.000000  (  0.000000   0.000000   0.000000)
  30:      3103.04    0.000000  (  0.000000   0.000000   0.000000)
  31:      3127.99    0.000000  (  0.000000   0.000000   0.000000)
  32:      3224.07    0.000000  (  0.000000   0.000000   0.000000)

The first frequency considered to be a vibration is 7
The total number of vibrations considered is 26


--------------------------
THERMOCHEMISTRY AT 298.15K
--------------------------

Temperature         ... 298.15 K
Pressure            ... 1.00 atm
Total Mass          ... 74.08 AMU

Throughout the following assumptions are being made:
  (1) The electronic state is orbitally nondegenerate
  (2) There are no thermally accessible electronically excited states
  (3) Hindered rotations indicated by low frequency modes are not
      treated as such but are treated as vibrations and this may
      cause some error
  (4) All equations used are the standard statistical mechanics
      equations for an ideal gas
  (5) All vibrations are strictly harmonic

freq.      52.96  E(vib)   ...       0.52 
freq.      72.33  E(vib)   ...       0.50 
freq.      88.82  E(vib)   ...       0.47 
freq.     137.17  E(vib)   ...       0.42 
freq.     153.73  E(vib)   ...       0.40 
freq.     582.09  E(vib)   ...       0.11 
freq.     620.07  E(vib)   ...       0.09 
freq.     840.66  E(vib)   ...       0.04 
freq.     885.62  E(vib)   ...       0.04 
freq.     954.04  E(vib)   ...       0.03 
freq.    1032.42  E(vib)   ...       0.02 
freq.    1042.79  E(vib)   ...       0.02 
freq.    1132.02  E(vib)   ...       0.01 
freq.    1178.17  E(vib)   ...       0.01 
freq.    1211.36  E(vib)   ...       0.01 
freq.    1386.25  E(vib)   ...       0.00 
freq.    1412.11  E(vib)   ...       0.00 
freq.    1414.89  E(vib)   ...       0.00 
freq.    1685.45  E(vib)   ...       0.00 
freq.    1823.06  E(vib)   ...       0.00 
freq.    2710.78  E(vib)   ...       0.00 
freq.    3089.24  E(vib)   ...       0.00 
freq.    3096.24  E(vib)   ...       0.00 
freq.    3103.04  E(vib)   ...       0.00 
freq.    3127.99  E(vib)   ...       0.00 
freq.    3224.07  E(vib)   ...       0.00 

------------
INNER ENERGY
------------

The inner energy is: U= E(el) + E(ZPE) + E(vib) + E(rot) + E(trans)
    E(el)   - is the total energy from the electronic structure calculation
              = E(kin-el) + E(nuc-el) + E(el-el) + E(nuc-nuc)
    E(ZPE)  - the the zero temperature vibrational energy from the frequency calculation
    E(vib)  - the the finite temperature correction to E(ZPE) due to population
              of excited vibrational states
    E(rot)  - is the rotational thermal energy
    E(trans)- is the translational thermal energy

Summary of contributions to the inner energy U:
Electronic energy                ...    -17.54860532 Eh
Zero point energy                ...      0.08214474 Eh      51.55 kcal/mol
Thermal vibrational correction   ...      0.00431006 Eh       2.70 kcal/mol
Thermal rotational correction    ...      0.00141627 Eh       0.89 kcal/mol
Thermal translational correction ...      0.00141627 Eh       0.89 kcal/mol
-----------------------------------------------------------------------
Total thermal energy                    -17.45931798 Eh


Summary of corrections to the electronic energy:
(perhaps to be used in another calculation)
Total thermal correction                  0.00714260 Eh       4.48 kcal/mol
Non-thermal (ZPE) correction              0.08214474 Eh      51.55 kcal/mol
-----------------------------------------------------------------------
Total correction                          0.08928735 Eh      56.03 kcal/mol


--------
ENTHALPY
--------

The enthalpy is H = U + kB*T
                kB is Boltzmann's constant
Total free energy                 ...    -17.45931798 Eh 
Thermal Enthalpy correction       ...      0.00094421 Eh       0.59 kcal/mol
-----------------------------------------------------------------------
Total Enthalpy                    ...    -17.45837377 Eh


Note: Only C1 symmetry has been detected, increase convergence thresholds 
      if your molecule has a higher symmetry. Symmetry factor of 1.0 is   
      used for the rotational entropy correction. 
 

Note: Rotational entropy computed according to Herzberg 
Infrared and Raman Spectra, Chapter V,1, Van Nostrand Reinhold, 1945 
Point Group:  C1, Symmetry Number:   1  
Rotational constants in cm-1:     0.453699     0.059847     0.054878 

Vibrational entropy computed according to the QRRHO of S. Grimme
Chem.Eur.J. 2012 18 9955


-------
ENTROPY
-------

The entropy contributions are T*S = T*(S(el)+S(vib)+S(rot)+S(trans))
     S(el)   - electronic entropy
     S(vib)  - vibrational entropy
     S(rot)  - rotational entropy
     S(trans)- translational entropy
The entropies will be listed as mutliplied by the temperature to get
units of energy

Electronic entropy                ...      0.00000000 Eh      0.00 kcal/mol
Vibrational entropy               ...      0.00820318 Eh      5.15 kcal/mol
Rotational entropy                ...      0.01258361 Eh      7.90 kcal/mol
Translational entropy             ...      0.01844631 Eh     11.58 kcal/mol
-----------------------------------------------------------------------
Final entropy term                ...      0.03923310 Eh     24.62 kcal/mol

In case the symmetry of your molecule has not been determined correctly
or in case you have a reason to use a different symmetry number we print 
out the resulting rotational entropy values for sn=1,12 :
 --------------------------------------------------------
|  sn= 1 | S(rot)=       0.01258361 Eh      7.90 kcal/mol|
|  sn= 2 | S(rot)=       0.01192916 Eh      7.49 kcal/mol|
|  sn= 3 | S(rot)=       0.01154633 Eh      7.25 kcal/mol|
|  sn= 4 | S(rot)=       0.01127470 Eh      7.07 kcal/mol|
|  sn= 5 | S(rot)=       0.01106401 Eh      6.94 kcal/mol|
|  sn= 6 | S(rot)=       0.01089187 Eh      6.83 kcal/mol|
|  sn= 7 | S(rot)=       0.01074632 Eh      6.74 kcal/mol|
|  sn= 8 | S(rot)=       0.01062025 Eh      6.66 kcal/mol|
|  sn= 9 | S(rot)=       0.01050904 Eh      6.59 kcal/mol|
|  sn=10 | S(rot)=       0.01040956 Eh      6.53 kcal/mol|
|  sn=11 | S(rot)=       0.01031957 Eh      6.48 kcal/mol|
|  sn=12 | S(rot)=       0.01023741 Eh      6.42 kcal/mol|
 --------------------------------------------------------


-------------------
GIBBS FREE ENERGY
-------------------

The Gibbs free energy is G = H - T*S

Total enthalpy                    ...    -17.45837377 Eh 
Total entropy correction          ...     -0.03923310 Eh    -24.62 kcal/mol
-----------------------------------------------------------------------
Final Gibbs free energy         ...    -17.49760687 Eh

For completeness - the Gibbs free energy minus the electronic energy
G-E(el)                           ...      0.05099846 Eh     32.00 kcal/mol


Total Time for Numerical Frequencies  :        85.480 sec

Timings for individual modules:

Sum of individual times         ...        4.007 sec (=   0.067 min)
Geometry relaxation             ...        2.863 sec (=   0.048 min)  71.4 %
XTB module                      ...        1.144 sec (=   0.019 min)  28.6 %
                             ****ORCA TERMINATED NORMALLY****
TOTAL RUN TIME: 0 days 0 hours 1 minutes 31 seconds 718 msec
