
                                 *****************
                                 * O   R   C   A *
                                 *****************

           --- An Ab Initio, DFT and Semiempirical electronic structure package ---

                  #######################################################
                  #                        -***-                        #
                  #          Department of theory and spectroscopy      #
                  #               Directorship: Frank Neese             #
                  #        Max Planck Institute fuer Kohlenforschung    #
                  #                Kaiser Wilhelm Platz 1               #
                  #                 D-45470 Muelheim/Ruhr               #
                  #                      Germany                        #
                  #                                                     #
                  #                  All rights reserved                #
                  #                        -***-                        #
                  #######################################################


                         Program Version 4.2.1 -  RELEASE  -


 With contributions from (in alphabetic order):
   Daniel Aravena         : Magnetic Suceptibility
   Michael Atanasov       : Ab Initio Ligand Field Theory (pilot matlab implementation)
   Alexander A. Auer      : GIAO ZORA, VPT2
   Ute Becker             : Parallelization
   Giovanni Bistoni       : ED, misc. LED, open-shell LED, HFLD
   Martin Brehm           : Molecular dynamics
   Dmytro Bykov           : SCF Hessian
   Vijay G. Chilkuri      : MRCI spin determinant printing, contributions to CSF-ICE
   Dipayan Datta          : RHF DLPNO-CCSD density
   Achintya Kumar Dutta   : EOM-CC, STEOM-CC
   Dmitry Ganyushin       : Spin-Orbit,Spin-Spin,Magnetic field MRCI
   Miquel Garcia          : C-PCM Hessian, Gaussian charge scheme
   Yang Guo               : DLPNO-NEVPT2, CIM, IAO-localization
   Andreas Hansen         : Spin unrestricted coupled pair/coupled cluster methods
   Benjamin Helmich-Paris : CASSCF linear response (MC-RPA)
   Lee Huntington         : MR-EOM, pCC
   Robert Izsak           : Overlap fitted RIJCOSX, COSX-SCS-MP3, EOM
   Christian Kollmar      : KDIIS, OOCD, Brueckner-CCSD(T), CCSD density
   Simone Kossmann        : Meta GGA functionals, TD-DFT gradient, OOMP2, MP2 Hessian
   Martin Krupicka        : AUTO-CI
   Lucas Lang             : DCDCAS
   Dagmar Lenk            : GEPOL surface, SMD
   Dimitrios Liakos       : Extrapolation schemes; Compound Job, initial MDCI parallelization
   Dimitrios Manganas     : Further ROCIS development; embedding schemes
   Dimitrios Pantazis     : SARC Basis sets
   Taras Petrenko         : DFT Hessian,TD-DFT gradient, ASA, ECA, R-Raman, ABS, FL, XAS/XES, NRVS
   Peter Pinski           : DLPNO-MP2, DLPNO-MP2 Gradient
   Christoph Reimann      : Effective Core Potentials
   Marius Retegan         : Local ZFS, SOC
   Christoph Riplinger    : Optimizer, TS searches, QM/MM, DLPNO-CCSD(T), (RO)-DLPNO pert. Triples
   Tobias Risthaus        : Range-separated hybrids, TD-DFT gradient, RPA, STAB
   Michael Roemelt        : Original ROCIS implementation
   Masaaki Saitow         : Open-shell DLPNO-CCSD energy and density
   Barbara Sandhoefer     : DKH picture change effects
   Avijit Sen             : IP-ROCIS
   Kantharuban Sivalingam : CASSCF convergence, NEVPT2, FIC-MRCI
   Bernardo de Souza      : ESD, SOC TD-DFT
   Georgi Stoychev        : AutoAux, RI-MP2 NMR
   Willem Van den Heuvel  : Paramagnetic NMR
   Boris Wezisla          : Elementary symmetry handling
   Frank Wennmohs         : Technical directorship


 We gratefully acknowledge several colleagues who have allowed us to
 interface, adapt or use parts of their codes:
   Stefan Grimme, W. Hujo, H. Kruse,             : VdW corrections, initial TS optimization,
                  C. Bannwarth                     DFT functionals, gCP, sTDA/sTD-DF
   Ed Valeev, F. Pavosevic, A. Kumar             : LibInt (2-el integral package), F12 methods
   Garnet Chan, S. Sharma, J. Yang, R. Olivares  : DMRG
   Ulf Ekstrom                                   : XCFun DFT Library
   Mihaly Kallay                                 : mrcc  (arbitrary order and MRCC methods)
   Andreas Klamt, Michael Diedenhofen            : otool_cosmo (COSMO solvation model)
   Jiri Pittner, Ondrej Demel                    : Mk-CCSD
   Frank Weinhold                                : gennbo (NPA and NBO analysis)
   Christopher J. Cramer and Donald G. Truhlar   : smd solvation model
   Lars Goerigk                                  : TD-DFT with DH, B97 family of functionals
   V. Asgeirsson, H. Jonsson                     : NEB implementation
   FAccTs GmbH                                   : IRC, NEB, NEB-TS, Multilevel, MM, QM/MM, CI optimization
   S Lehtola, MJT Oliveira, MAL Marques          : LibXC Library


 Your calculation uses the libint2 library for the computation of 2-el integrals
 For citations please refer to: http://libint.valeyev.net

 Your ORCA version has been built with support for libXC version: 4.2.3
 For citations please refer to: https://tddft.org/programs/libxc/

 This ORCA versions uses:
   CBLAS   interface :  Fast vector & matrix operations
   LAPACKE interface :  Fast linear algebra routines
   SCALAPACK package :  Parallel linear algebra routines


Your calculation utilizes the semiempirical GFN2-xTB method
Please cite in your paper:
C. Bannwarth, Ehlert S., S. Grimme,  J. Chem. Theory Comput., 15, (2019), 1652.
   

----- Orbital basis set information -----
Your calculation utilizes the basis: def2-SVP
   F. Weigend and R. Ahlrichs, Phys. Chem. Chem. Phys. 7, 3297 (2005).

================================================================================
                                        WARNINGS
                       Please study these warnings very carefully!
================================================================================


WARNING: Geometry Optimization
  ===> : Switching off AutoStart
         For restart on a previous wavefunction, please use MOREAD

WARNING: Found dipole moment calculation with XTB calculation
  ===> : Switching off dipole moment calculation


INFO   : the flag for use of LIBINT has been found!

================================================================================
                                       INPUT FILE
================================================================================
NAME = orca.inp
|  1> !XTB  TIGHTOPT
|  2> 
|  3> ! numfreq
|  4> 
|  5> *xyz 0 1
|  6> C    -0.507257747    0.000000000    -1.336909656
|  7> H    -0.507257747    1.019690000    -1.736165656
|  8> H    0.375820253    -0.509845000    -1.736165656
|  9> C    -0.507257747    0.000000000    0.193078344
| 10> H    -1.390335747    0.509845000    0.592334344
| 11> H    -0.507257747    -1.019690000    0.592334344
| 12> H    0.375820253    0.509845000    0.592334344
| 13> O    -1.668493637    -0.670439431    -1.861926015
| 14> C    -1.678513709    -2.088458502    -1.866456276
| 15> H    -1.601461883    -2.498610345    -0.851147493
| 16> O    -1.777638042    -2.892064428    -3.057250920
| 17> **                         ****END OF INPUT****
================================================================================

                       *****************************
                       * Geometry Optimization Run *
                       *****************************

Geometry optimization settings:
Update method            Update   .... BFGS
Choice of coordinates    CoordSys .... Z-matrix Internals
Initial Hessian          InHess   .... Almoef's Model

Convergence Tolerances:
Energy Change            TolE     ....  1.0000e-06 Eh
Max. Gradient            TolMAXG  ....  1.0000e-04 Eh/bohr
RMS Gradient             TolRMSG  ....  3.0000e-05 Eh/bohr
Max. Displacement        TolMAXD  ....  1.0000e-03 bohr
RMS Displacement         TolRMSD  ....  6.0000e-04 bohr
Strict Convergence                ....  False
------------------------------------------------------------------------------
                        ORCA OPTIMIZATION COORDINATE SETUP
------------------------------------------------------------------------------

The optimization will be done in new redundant internal coordinates
Making redundant internal coordinates   ...  (new redundants) done
Evaluating the initial hessian          ...  (Almloef) done
Evaluating the coordinates              ...  done
Calculating the B-matrix                .... done
Calculating the G-matrix                .... done
Diagonalizing the G-matrix              .... done
The first mode is                       ....   13
The number of degrees of freedom        ....   27

    -----------------------------------------------------------------
                    Redundant Internal Coordinates


    -----------------------------------------------------------------
         Definition                    Initial Value    Approx d2E/dq
    -----------------------------------------------------------------
      1. B(H   1,C   0)                  1.0951         0.353458   
      2. B(H   2,C   0)                  1.0951         0.353458   
      3. B(C   3,C   0)                  1.5300         0.373591   
      4. B(H   4,C   3)                  1.0951         0.353458   
      5. B(H   5,C   3)                  1.0951         0.353458   
      6. B(H   6,C   3)                  1.0951         0.353458   
      7. B(O   7,C   0)                  1.4400         0.465697   
      8. B(C   8,O   7)                  1.4181         0.504783   
      9. B(H   9,C   8)                  1.0977         0.350017   
     10. B(O  10,C   8)                  1.4400         0.465697   
     11. A(H   1,C   0,O   7)          107.4940         0.333289   
     12. A(H   1,C   0,H   2)          107.4940         0.289146   
     13. A(C   3,C   0,O   7)          111.3826         0.375016   
     14. A(H   2,C   0,O   7)          107.4940         0.333289   
     15. A(H   1,C   0,C   3)          111.3827         0.323332   
     16. A(H   2,C   0,C   3)          111.3826         0.323332   
     17. A(C   0,C   3,H   6)          111.3826         0.323332   
     18. A(H   4,C   3,H   5)          107.4940         0.289146   
     19. A(C   0,C   3,H   5)          111.3827         0.323332   
     20. A(H   5,C   3,H   6)          107.4940         0.289146   
     21. A(H   4,C   3,H   6)          107.4940         0.289145   
     22. A(C   0,C   3,H   4)          111.3826         0.323332   
     23. A(C   0,O   7,C   8)          118.1923         0.392658   
     24. A(O   7,C   8,O  10)          124.1368         0.392658   
     25. A(O   7,C   8,H   9)          111.7263         0.337236   
     26. A(H   9,C   8,O  10)          124.1368         0.332749   
     27. D(H   4,C   3,C   0,O   7)    -60.0000         0.011145   
     28. D(H   4,C   3,C   0,H   2)    180.0000         0.011145   
     29. D(H   5,C   3,C   0,H   1)    180.0000         0.011145   
     30. D(H   5,C   3,C   0,O   7)     60.0000         0.011145   
     31. D(H   6,C   3,C   0,H   1)    -60.0000         0.011145   
     32. D(H   4,C   3,C   0,H   1)     60.0000         0.011145   
     33. D(H   6,C   3,C   0,H   2)     60.0000         0.011145   
     34. D(H   6,C   3,C   0,O   7)   -180.0000         0.011145   
     35. D(H   5,C   3,C   0,H   2)    -60.0000         0.011145   
     36. D(C   8,O   7,C   0,C   3)    -78.1129         0.017090   
     37. D(C   8,O   7,C   0,H   2)     44.1594         0.017090   
     38. D(C   8,O   7,C   0,H   1)    159.6149         0.017090   
     39. D(O  10,C   8,O   7,C   0)   -118.8245         0.018315   
     40. D(H   9,C   8,O   7,C   0)     61.1755         0.018315   
    -----------------------------------------------------------------

Number of atoms                         .... 11
Number of degrees of freedom            .... 40

         *************************************************************
         *                GEOMETRY OPTIMIZATION CYCLE   1            *
         *************************************************************
      -----------------------------------------------------------      
     |                   =====================                   |     
     |                           x T B                           |     
     |                   =====================                   |     
     |                         S. Grimme                         |     
     |          Mulliken Center for Theoretical Chemistry        |     
     |                    University of Bonn                     |     
     |                 Version 6.0.1 (SAW181210)                 |     
      -----------------------------------------------------------      

   This program is distributed in the hope that it will be useful,
   but WITHOUT ANY WARRANTY; without even the implied warranty of
   MERCHANTABILITY or FITNESS FOR A PARTICULAR PURPOSE.
   
   FOR NON-COMMERCIAL, ACADEMIA USE ONLY.
   
   Cite this work as:
   S. Grimme, C. Bannwarth, P. Shushkov, J. Comput. Theory Chem., 2017,
   13, 1989-2009.
   C. Bannwarth, S. Ehlert and S. Grimme., ChemRxiv, 2018, preprint.
   http://doi.org/10.26434/chemrxiv.7246238.v1
   
   for sTDA-xTB:
   S. Grimme and C. Bannwarth, J. Chem. Phys., 2016, 145, 054103.
   
   in the mass-spec context:
   V. Asgeirsson, C. Bauer and S. Grimme, Chem. Sci., 2017, 8, 4879.
   
   if GBSA is used:
   P. Shushkov, F. März and S. Grimme, unpublished.
   
   for ANC optimizer:
   S. Grimme, unpublished.
   Rational Function algorithm used in ANCopt:
   F. Eckert, P. Pulay, H.-J. Werner, J. Comput. Chem., 1997, 18, 1473.
   
   with help from (in alphabetical order)
   C. Bannwarth, F. Bohle, G. Brandenburg, E. Caldeweyher, M. Checinski,
   S. Dohm, S. Ehlert, S. Ehrlich, F. März, H. Neugebauer, J. Pisarek,
   P. Pracht, P. Shushkov, and S. Spicher.
   
 * started run on 2020/12/16 at 09:25:05.155     
========================================================================
 # omp threads = 1
========================================================================
calculation namespace      : orca
number of atoms            : 11
number of electrons        : 30
charge                     : 0
spin                       : .0
first test random number   : .9018

########################################################################
# WARNING! Please study the warnings concerning your input carefully
#  - XTBHOME is not set, using HOME instead
#  - XTBPATH is not set, using XTBHOME instead
########################################################################

           ------------------------------------------------- 
          |                 G F N 2 - x T B                 |
          | Geometry, Frequencies, Noncovalent interactions |
          |            JCTC 2018 parametrisation            |
           ------------------------------------------------- 
      method parameters     
 k(s)        :  1.8500
 k(p)        :  2.2300
 k(d)        :  2.2300
 k(f)        :  2.0000
 kEN (H0ij)  : -2.0000
 D4 a1       :  0.5200
 D4 a2       :  5.0000
 D4 s6       :  1.0000
 D4 s8       :  2.7000
 D4 s9       :  5.0000
 alphaj      :  2.0000


            Z     q(EN)     CN     RAES       Cart. coordinates
     1  C   4.0    0.03    4.03    3.67    -0.95858     0.00000    -2.52639
     2  H   1.0    0.05    1.01    1.43    -0.95858     1.92693    -3.28088
     3  H   1.0    0.05    1.01    1.43     0.71020    -0.96347    -3.28088
     4  C   4.0   -0.06    3.96    3.55    -0.95858     0.00000     0.36487
     5  H   1.0    0.05    0.99    1.43    -2.62735     0.96347     1.11935
     6  H   1.0    0.05    0.99    1.43    -0.95858    -1.92693     1.11935
     7  H   1.0    0.05    0.99    1.43     0.71020     0.96347     1.11935
     8  O   6.0   -0.18    2.05    1.83    -3.15300    -1.26695    -3.51853
     9  C   4.0    0.14    2.99    3.02    -3.17193    -3.94661    -3.52709
    10  H   1.0    0.05    0.98    1.43    -3.02632    -4.72169    -1.60844
    11  O   6.0   -0.24    0.98    1.80    -3.35925    -5.46521    -5.77737

  Z AO/shell   Hii/eV     exponent
  1     Wed Apr 25 08:07:45 CEST 2018   EN: 2.200 GM2: 0.406  GM3: 0.0800  RAES: 1.40
     1s    -10.707211    1.230000
  6     Wed Apr 25 08:07:45 CEST 2018   EN: 2.550 GM2: 0.538  GM3: 0.1500  RAES: 3.00
     2s    -13.970922    2.096432
     2p    -10.063292    1.800000
  8     Wed Apr 25 08:07:45 CEST 2018   EN: 3.440 GM2: 0.452  GM3:-0.0517  RAES: 1.80
     2s    -20.229985    2.439742
     2p    -15.503117    2.137023
 no old-style atom pair restraining (fixing) potential
           ------------------------------------------------- 
          |        Self-Consistent Charge Iterations        |
           ------------------------------------------------- 

 Ncao       : 26
 Nao        : 26
 Nshell     : 16
 Nel        : 30
 T(el)      :   300.0
 intcut     :    25.0
 scfconv/Eh :  0.100E-05
   qconv/e  :  0.100E-03
 intneglect :  0.100E-07
 broydamp   :      0.250
 iter      E             dE          RMSdq      gap      omega  full diag
   1    -17.4938334 -0.174938E+02  0.632E+00    3.91       0.0  T
   2    -17.6438693 -0.150036E+00  0.335E+00    2.52       1.0  T
   3    -17.6469691 -0.309983E-02  0.235E+00    2.76       1.0  T
   4    -17.6471527 -0.183593E-03  0.467E-01    2.59       1.0  T
   5    -17.6481035 -0.950823E-03  0.284E-01    2.75       1.0  T
   6    -17.6484473 -0.343740E-03  0.169E-01    2.64       1.0  T
   7    -17.6486668 -0.219529E-03  0.268E-02    2.68       1.1  T
   8    -17.6486652  0.157990E-05  0.216E-02    2.69       1.4  T
   9    -17.6486680 -0.271837E-05  0.456E-03    2.68       6.6  T
  10    -17.6486680 -0.650504E-07  0.166E-03    2.68      18.1  T
  11    -17.6486680 -0.450430E-08  0.609E-04    2.68      49.5  T
  12    -17.6486680  0.165983E-10  0.424E-04    2.68      71.1  T
speedup  0.07
cpu  time for SCC    0.01 s
wall time for SCC    0.09 s

   *** convergence criteria satisfied after 12 iterations ***

          eigenvalues
 #    :           3          4          5          6          7          8          9         10
 occ. :        2.000      2.000      2.000      2.000      2.000      2.000      2.000      2.000
 eps  :       -18.196    -17.451    -16.654    -16.142    -15.576    -15.200    -14.427    -14.212
 #    :          11         12         13         14         15         16         17         18
 occ. :        2.000      2.000      2.000      2.000      2.000      0.000      0.000      0.000
 eps  :       -13.533    -13.172    -12.832    -12.277    -11.791     -9.109     -2.209      0.421
 #    :          19         20         21         22         23         24         25         26
 occ. :        0.000      0.000      0.000      0.000      0.000      0.000      0.000      0.000
 eps  :         1.992      2.442      3.467      3.805      4.311      5.015      5.897      6.554


   #   Z            q   n(s)   n(p)   n(d)      C6AA      α(0)
   1   6 C      0.078  1.042  2.880  0.000    19.493     6.325
   2   1 H      0.078  0.922  0.000  0.000     1.995     2.209
   3   1 H      0.051  0.949  0.000  0.000     2.312     2.378
   4   6 C     -0.118  1.039  3.079  0.000    22.823     6.814
   5   1 H      0.061  0.939  0.000  0.000     2.191     2.315
   6   1 H      0.048  0.952  0.000  0.000     2.339     2.392
   7   1 H      0.055  0.945  0.000  0.000     2.261     2.351
   8   8 O     -0.255  1.679  4.576  0.000    18.233     5.765
   9   6 C      0.281  1.089  2.630  0.000    22.251     7.716
  10   1 H      0.076  0.924  0.000  0.000     2.017     2.221
  11   8 O     -0.356  1.849  4.507  0.000    20.818     6.117

 Mol. C6AA /au·bohr⁶  :        992.885972
 Mol. C8AA /au·bohr⁸  :      20993.356084
 Mol. α(0) /au        :         46.602406

 
 Wiberg/Mayer (AO) data. WBOs > 0.1 written file <wbo>
 largest (>0.05) Wiberg bond orders for each atom
           total WBO             WBO to atom ...
     1  C   3.918    C    4 1.015    H    3 0.974    H    2 0.965    O    8 0.917
     2  H   0.994    C    1 0.965
     3  H   0.997    C    1 0.974
     4  C   3.992    C    1 1.015    H    5 0.985    H    6 0.984    H    7 0.982
     5  H   0.996    C    4 0.985
     6  H   0.998    C    4 0.984
     7  H   0.996    C    4 0.982
     8  O   2.237    C    9 1.131    C    1 0.917    O   11 0.134
     9  C   3.909    O   11 1.796    O    8 1.131    H   10 0.949
    10  H   0.994    C    9 0.949
    11  O   1.996    C    9 1.796    O    8 0.134
 MOs/occ written to file <molden.input>
 
molecular dipole:
                 x           y           z       tot (Debye)
 q only:        0.709       0.917       1.359
   full:        0.771       0.930       1.553       5.001
molecular quadrupole (traceless):
                xx          xy          yy          xz          yz          zz
 q only:        4.320      -4.717       1.540      -9.069     -12.284      -5.860
  q+dip:        4.768      -5.543       1.893     -10.951     -14.402      -6.662
   full:        5.923      -5.293       1.463     -10.808     -14.288      -7.386
speedup  0.12
cpu  time for grad    0.01 s
wall time for grad    0.09 s

SCC energy    :     -17.6486680
rep           :       0.1283596
ES            :       0.0430632
AES           :       0.0045694
AXC           :       0.0053941
disp          :      -0.0046747
XB            :       0.0000000
fix           :       0.0000000
grad norm     :       0.2538545
total E       :     -17.5203062
atomizationE  :       2.7591856     1731.42
(atE without considering molecular charge,
 total energy contains solvation terms)
H-L gap (eV)  :          2.6824

------------------------------------------------------------------------
 * finished run on 2020/12/16 at 09:25:05.351     
------------------------------------------------------------------------
 total:
 * wall-time:     0 d,  0 h,  0 min,  0.195 sec
 *  cpu-time:     0 d,  0 h,  0 min,  0.026 sec
 * ratio c/w:     0.135 speedup
 SCF:
 * wall-time:     0 d,  0 h,  0 min,  0.091 sec
 *  cpu-time:     0 d,  0 h,  0 min,  0.012 sec
 * ratio c/w:     0.136 speedup


-------------------------   --------------------
FINAL SINGLE POINT ENERGY       -17.520306200480
-------------------------   --------------------

------------------------------------------------------------------------------
                         ORCA GEOMETRY RELAXATION STEP
------------------------------------------------------------------------------

Reading the OPT-File                    .... done
Getting information on internals        .... done
Copying old internal coords+grads       .... done
Making the new internal coordinates     .... (new redundants).... done
Validating the new internal coordinates .... (new redundants).... done
Calculating the B-matrix                .... done
Calculating the G,G- and P matrices     .... done
Transforming gradient to internals      .... done
Projecting the internal gradient        .... done
Number of atoms                         ....  11
Number of internal coordinates          ....  40
Current Energy                          ....   -17.520306200 Eh
Current gradient norm                   ....     0.253854461 Eh/bohr
Maximum allowed component of the step   ....  0.300
Current trust radius                    ....  0.300
Evaluating the initial hessian          ....  (Almloef) done
Projecting the Hessian                  .... done
Forming the augmented Hessian           .... done
Diagonalizing the augmented Hessian     .... done
Last element of RFO vector              ....  0.927816655
Lowest eigenvalues of augmented Hessian:
 -0.084574927  0.011156025  0.017129895  0.018315286  0.019013570
Length of the computed step             ....  0.402058456
Warning: the length of the step is outside the trust region - taking restricted step instead
The input lambda is                     ....    -0.084575
   iter:   1  x=   -0.182183  g=    0.734072 f(x)=     0.071651
   iter:   2  x=   -0.243165  g=    0.364690 f(x)=     0.022240
   iter:   3  x=   -0.254602  g=    0.270447 f(x)=     0.003093
   iter:   4  x=   -0.254907  g=    0.256898 f(x)=     0.000078
   iter:   5  x=   -0.254907  g=    0.256550 f(x)=     0.000000
   iter:   6  x=   -0.254907  g=    0.256550 f(x)=     0.000000
   iter:   7  x=   -0.254907  g=    0.256550 f(x)=    -0.000000
The output lambda is                    ....    -0.254907 (7 iterations)
The final length of the internal step   ....  0.300000000
Converting the step to cartesian space:
 Initial RMS(Int)=    0.0474341649
Transforming coordinates:
 Iter   0:  RMS(Cart)=    0.0619240444 RMS(Int)=    0.9937267678
 Iter   1:  RMS(Cart)=    0.0009158619 RMS(Int)=    0.0005387383
 Iter   2:  RMS(Cart)=    0.0000852877 RMS(Int)=    0.0000572369
 Iter   3:  RMS(Cart)=    0.0000084948 RMS(Int)=    0.0000056693
 Iter   4:  RMS(Cart)=    0.0000008463 RMS(Int)=    0.0000005423
 Iter   5:  RMS(Cart)=    0.0000000822 RMS(Int)=    0.0000000508
done
Storing new coordinates                 .... done

                                .--------------------.
          ----------------------|Geometry convergence|-------------------------
          Item                value                   Tolerance       Converged
          ---------------------------------------------------------------------
          RMS gradient        0.0339450874            0.0000300000      NO
          MAX gradient        0.1998876094            0.0001000000      NO
          RMS step            0.0474341649            0.0006000000      NO
          MAX step            0.2773887950            0.0010000000      NO
          ........................................................
          Max(Bonds)      0.1468      Max(Angles)    1.84
          Max(Dihed)        1.49      Max(Improp)    0.00
          ---------------------------------------------------------------------

The optimization has not yet converged - more geometry cycles are needed


    ---------------------------------------------------------------------------
                         Redundant Internal Coordinates
                            (Angstroem and degrees)

        Definition                    Value    dE/dq     Step     New-Value
    ----------------------------------------------------------------------------
     1. B(H   1,C   0)                1.0951  0.003145 -0.0027    1.0923   
     2. B(H   2,C   0)                1.0951  0.000002 -0.0000    1.0951   
     3. B(C   3,C   0)                1.5300  0.005678 -0.0048    1.5252   
     4. B(H   4,C   3)                1.0951  0.004398 -0.0038    1.0912   
     5. B(H   5,C   3)                1.0951  0.004434 -0.0039    1.0912   
     6. B(H   6,C   3)                1.0951  0.005385 -0.0047    1.0904   
     7. B(O   7,C   0)                1.4400  0.009671 -0.0071    1.4329   
     8. B(C   8,O   7)                1.4181  0.068602 -0.0478    1.3703   
     9. B(H   9,C   8)                1.0977  0.009544 -0.0083    1.0894   
    10. B(O  10,C   8)                1.4400  0.199888 -0.1468    1.2932   
    11. A(H   1,C   0,O   7)          107.49  0.004643   -0.42    107.07   
    12. A(H   1,C   0,H   2)          107.49 -0.001087   -0.04    107.45   
    13. A(C   3,C   0,O   7)          111.38 -0.012442    1.23    112.61   
    14. A(H   2,C   0,O   7)          107.49  0.001481   -0.01    107.49   
    15. A(H   1,C   0,C   3)          111.38  0.003213   -0.35    111.03   
    16. A(H   2,C   0,C   3)          111.38  0.004511   -0.43    110.95   
    17. A(C   0,C   3,H   6)          111.38  0.003159   -0.33    111.06   
    18. A(H   4,C   3,H   5)          107.49 -0.002260    0.24    107.73   
    19. A(C   0,C   3,H   5)          111.38  0.000767   -0.08    111.30   
    20. A(H   5,C   3,H   6)          107.49 -0.002085    0.21    107.71   
    21. A(H   4,C   3,H   6)          107.49 -0.003182    0.32    107.81   
    22. A(C   0,C   3,H   4)          111.38  0.003122   -0.32    111.07   
    23. A(C   0,O   7,C   8)          118.19  0.013204   -1.17    117.02   
    24. A(O   7,C   8,O  10)          124.14  0.013373   -1.22    122.92   
    25. A(O   7,C   8,H   9)          111.73 -0.019362    1.84    113.56   
    26. A(H   9,C   8,O  10)          124.14  0.005989   -0.62    123.52   
    27. D(H   4,C   3,C   0,O   7)    -60.00 -0.001295    0.22    -59.78   
    28. D(H   4,C   3,C   0,H   2)    180.00  0.002202   -0.31    179.69   
    29. D(H   5,C   3,C   0,H   1)    180.00 -0.001889    0.31    180.31   
    30. D(H   5,C   3,C   0,O   7)     60.00 -0.001528    0.26     60.26   
    31. D(H   6,C   3,C   0,H   1)    -60.00 -0.001874    0.31    -59.69   
    32. D(H   4,C   3,C   0,H   1)     60.00 -0.001656    0.28     60.28   
    33. D(H   6,C   3,C   0,H   2)     60.00  0.001984   -0.28     59.72   
    34. D(H   6,C   3,C   0,O   7)   -180.00 -0.001513    0.25   -179.75   
    35. D(H   5,C   3,C   0,H   2)    -60.00  0.001969   -0.27    -60.27   
    36. D(C   8,O   7,C   0,C   3)    -78.11  0.001742   -0.39    -78.50   
    37. D(C   8,O   7,C   0,H   2)     44.16  0.000603   -0.17     43.99   
    38. D(C   8,O   7,C   0,H   1)    159.61  0.002398   -0.44    159.18   
    39. D(O  10,C   8,O   7,C   0)   -118.82  0.007094   -1.49   -120.31   
    40. D(H   9,C   8,O   7,C   0)     61.18  0.005678   -1.19     59.98   
    ----------------------------------------------------------------------------

         *************************************************************
         *                GEOMETRY OPTIMIZATION CYCLE   2            *
         *************************************************************
      -----------------------------------------------------------      
     |                   =====================                   |     
     |                           x T B                           |     
     |                   =====================                   |     
     |                         S. Grimme                         |     
     |          Mulliken Center for Theoretical Chemistry        |     
     |                    University of Bonn                     |     
     |                 Version 6.0.1 (SAW181210)                 |     
      -----------------------------------------------------------      

   This program is distributed in the hope that it will be useful,
   but WITHOUT ANY WARRANTY; without even the implied warranty of
   MERCHANTABILITY or FITNESS FOR A PARTICULAR PURPOSE.
   
   FOR NON-COMMERCIAL, ACADEMIA USE ONLY.
   
   Cite this work as:
   S. Grimme, C. Bannwarth, P. Shushkov, J. Comput. Theory Chem., 2017,
   13, 1989-2009.
   C. Bannwarth, S. Ehlert and S. Grimme., ChemRxiv, 2018, preprint.
   http://doi.org/10.26434/chemrxiv.7246238.v1
   
   for sTDA-xTB:
   S. Grimme and C. Bannwarth, J. Chem. Phys., 2016, 145, 054103.
   
   in the mass-spec context:
   V. Asgeirsson, C. Bauer and S. Grimme, Chem. Sci., 2017, 8, 4879.
   
   if GBSA is used:
   P. Shushkov, F. März and S. Grimme, unpublished.
   
   for ANC optimizer:
   S. Grimme, unpublished.
   Rational Function algorithm used in ANCopt:
   F. Eckert, P. Pulay, H.-J. Werner, J. Comput. Chem., 1997, 18, 1473.
   
   with help from (in alphabetical order)
   C. Bannwarth, F. Bohle, G. Brandenburg, E. Caldeweyher, M. Checinski,
   S. Dohm, S. Ehlert, S. Ehrlich, F. März, H. Neugebauer, J. Pisarek,
   P. Pracht, P. Shushkov, and S. Spicher.
   
 * started run on 2020/12/16 at 09:25:05.413     
========================================================================
 # omp threads = 1
========================================================================
calculation namespace      : orca
number of atoms            : 11
number of electrons        : 30
charge                     : 0
spin                       : .0
first test random number   : .9925

########################################################################
# WARNING! Please study the warnings concerning your input carefully
#  - XTBHOME is not set, using HOME instead
#  - XTBPATH is not set, using XTBHOME instead
########################################################################

           ------------------------------------------------- 
          |                 G F N 2 - x T B                 |
          | Geometry, Frequencies, Noncovalent interactions |
          |            JCTC 2018 parametrisation            |
           ------------------------------------------------- 
      method parameters     
 k(s)        :  1.8500
 k(p)        :  2.2300
 k(d)        :  2.2300
 k(f)        :  2.0000
 kEN (H0ij)  : -2.0000
 D4 a1       :  0.5200
 D4 a2       :  5.0000
 D4 s6       :  1.0000
 D4 s8       :  2.7000
 D4 s9       :  5.0000
 alphaj      :  2.0000


            Z     q(EN)     CN     RAES       Cart. coordinates
     1  C   4.0    0.03    4.06    3.74    -0.98796    -0.05726    -2.53141
     2  H   1.0    0.05    1.01    1.43    -0.98110     1.86003    -3.29619
     3  H   1.0    0.05    1.01    1.43     0.68705    -1.02465    -3.26682
     4  C   4.0   -0.07    3.97    3.57    -0.97484    -0.02128     0.35056
     5  H   1.0    0.05    1.00    1.43    -2.63752     0.95096     1.08724
     6  H   1.0    0.05    1.00    1.43    -0.97116    -1.93296     1.12366
     7  H   1.0    0.05    1.00    1.43     0.69376     0.94937     1.07125
     8  O   6.0   -0.18    2.10    1.84    -3.16286    -1.31044    -3.54701
     9  C   4.0    0.16    3.09    3.02    -3.13766    -3.89976    -3.54286
    10  H   1.0    0.05    0.99    1.43    -2.96315    -4.71804    -1.66192
    11  O   6.0   -0.25    1.06    1.80    -3.31633    -5.23298    -5.58316

  Z AO/shell   Hii/eV     exponent
  1     Wed Apr 25 08:07:45 CEST 2018   EN: 2.200 GM2: 0.406  GM3: 0.0800  RAES: 1.40
     1s    -10.707211    1.230000
  6     Wed Apr 25 08:07:45 CEST 2018   EN: 2.550 GM2: 0.538  GM3: 0.1500  RAES: 3.00
     2s    -13.970922    2.096432
     2p    -10.063292    1.800000
  8     Wed Apr 25 08:07:45 CEST 2018   EN: 3.440 GM2: 0.452  GM3:-0.0517  RAES: 1.80
     2s    -20.229985    2.439742
     2p    -15.503117    2.137023
 no old-style atom pair restraining (fixing) potential
           ------------------------------------------------- 
          |        Self-Consistent Charge Iterations        |
           ------------------------------------------------- 

 Ncao       : 26
 Nao        : 26
 Nshell     : 16
 Nel        : 30
 T(el)      :   300.0
 intcut     :    25.0
 scfconv/Eh :  0.100E-05
   qconv/e  :  0.100E-03
 intneglect :  0.100E-07
 broydamp   :      0.250
 iter      E             dE          RMSdq      gap      omega  full diag
   1    -17.6254630 -0.176255E+02  0.583E+00    4.65       0.0  T
   2    -17.7190998 -0.936368E-01  0.341E+00    3.70       1.0  T
   3    -17.7218427 -0.274288E-02  0.186E+00    3.55       1.0  T
   4    -17.7221203 -0.277588E-03  0.339E-01    3.63       1.0  T
   5    -17.7222676 -0.147324E-03  0.188E-01    3.57       1.0  T
   6    -17.7224676 -0.200032E-03  0.101E-01    3.63       1.0  T
   7    -17.7225047 -0.370966E-04  0.268E-02    3.60       1.1  T
   8    -17.7225063 -0.155247E-05  0.188E-02    3.61       1.6  T
   9    -17.7225083 -0.203307E-05  0.530E-03    3.61       5.7  T
  10    -17.7225085 -0.174806E-06  0.148E-03    3.61      20.4  T
  11    -17.7225085 -0.126345E-09  0.520E-04    3.61      58.0  T
  12    -17.7225085 -0.163587E-08  0.164E-04    3.61     183.7  T
speedup  0.86
cpu  time for SCC    0.00 s
wall time for SCC    0.00 s

   *** convergence criteria satisfied after 12 iterations ***

          eigenvalues
 #    :           3          4          5          6          7          8          9         10
 occ. :        2.000      2.000      2.000      2.000      2.000      2.000      2.000      2.000
 eps  :       -18.325    -17.494    -16.736    -16.293    -15.689    -15.333    -14.470    -14.288
 #    :          11         12         13         14         15         16         17         18
 occ. :        2.000      2.000      2.000      2.000      2.000      0.000      0.000      0.000
 eps  :       -13.739    -13.350    -12.853    -12.246    -11.781     -8.171     -0.417      2.052
 #    :          19         20         21         22         23         24         25         26
 occ. :        0.000      0.000      0.000      0.000      0.000      0.000      0.000      0.000
 eps  :         2.533      3.012      4.049      4.286      5.433      6.405      6.970      9.489


   #   Z            q   n(s)   n(p)   n(d)      C6AA      α(0)
   1   6 C      0.079  1.038  2.883  0.000    19.445     6.311
   2   1 H      0.076  0.924  0.000  0.000     2.024     2.225
   3   1 H      0.045  0.955  0.000  0.000     2.380     2.412
   4   6 C     -0.119  1.037  3.083  0.000    22.852     6.818
   5   1 H      0.060  0.940  0.000  0.000     2.194     2.316
   6   1 H      0.049  0.951  0.000  0.000     2.336     2.390
   7   1 H      0.055  0.945  0.000  0.000     2.257     2.349
   8   8 O     -0.265  1.666  4.600  0.000    18.397     5.791
   9   6 C      0.317  1.048  2.634  0.000    21.610     7.605
  10   1 H      0.044  0.956  0.000  0.000     2.400     2.423
  11   8 O     -0.341  1.781  4.560  0.000    20.533     6.075

 Mol. C6AA /au·bohr⁶  :        997.718627
 Mol. C8AA /au·bohr⁸  :      21028.061990
 Mol. α(0) /au        :         46.715939

 
 Wiberg/Mayer (AO) data. WBOs > 0.1 written file <wbo>
 largest (>0.05) Wiberg bond orders for each atom
           total WBO             WBO to atom ...
     1  C   3.920    C    4 1.015    H    3 0.975    H    2 0.967    O    8 0.919
     2  H   0.994    C    1 0.967
     3  H   0.998    C    1 0.975
     4  C   3.992    C    1 1.015    H    5 0.985    H    6 0.984    H    7 0.982
     5  H   0.996    C    4 0.985
     6  H   0.998    C    4 0.984
     7  H   0.997    C    4 0.982
     8  O   2.231    C    9 1.114    C    1 0.919    O   11 0.136
     9  C   3.918    O   11 1.839    O    8 1.114    H   10 0.936
    10  H   0.998    C    9 0.936
    11  O   2.051    C    9 1.839    O    8 0.136
 MOs/occ written to file <molden.input>
 
molecular dipole:
                 x           y           z       tot (Debye)
 q only:        0.670       0.795       1.186
   full:        0.732       0.797       1.406       4.510
molecular quadrupole (traceless):
                xx          xy          yy          xz          yz          zz
 q only:        3.284      -4.064       1.711      -8.018     -10.121      -4.995
  q+dip:        4.074      -4.947       2.166     -10.041     -12.558      -6.240
   full:        5.083      -4.630       1.804      -9.897     -12.351      -6.887
speedup  0.93
cpu  time for grad    0.01 s
wall time for grad    0.01 s

SCC energy    :     -17.7225085
rep           :       0.1485234
ES            :       0.0410376
AES           :       0.0039024
AXC           :       0.0038539
disp          :      -0.0047912
XB            :       0.0000000
fix           :       0.0000000
grad norm     :       0.1676314
total E       :     -17.5739828
atomizationE  :       2.8128622     1765.10
(atE without considering molecular charge,
 total energy contains solvation terms)
H-L gap (eV)  :          3.6093

------------------------------------------------------------------------
 * finished run on 2020/12/16 at 09:25:05.437     
------------------------------------------------------------------------
 total:
 * wall-time:     0 d,  0 h,  0 min,  0.023 sec
 *  cpu-time:     0 d,  0 h,  0 min,  0.018 sec
 * ratio c/w:     0.774 speedup
 SCF:
 * wall-time:     0 d,  0 h,  0 min,  0.010 sec
 *  cpu-time:     0 d,  0 h,  0 min,  0.010 sec
 * ratio c/w:     1.001 speedup


-------------------------   --------------------
FINAL SINGLE POINT ENERGY       -17.573982812510
-------------------------   --------------------

------------------------------------------------------------------------------
                         ORCA GEOMETRY RELAXATION STEP
------------------------------------------------------------------------------

Reading the OPT-File                    .... done
Getting information on internals        .... done
Copying old internal coords+grads       .... done
Making the new internal coordinates     .... (new redundants).... done
Validating the new internal coordinates .... (new redundants).... done
Calculating the B-matrix                .... done
Calculating the G,G- and P matrices     .... done
Transforming gradient to internals      .... done
Projecting the internal gradient        .... done
Number of atoms                         ....  11
Number of internal coordinates          ....  40
Current Energy                          ....   -17.573982813 Eh
Current gradient norm                   ....     0.167631430 Eh/bohr
Maximum allowed component of the step   ....  0.300
Current trust radius                    ....  0.300
Updating the Hessian (BFGS)             .... done
Forming the augmented Hessian           .... done
Diagonalizing the augmented Hessian     .... done
Last element of RFO vector              ....  0.900208694
Lowest eigenvalues of augmented Hessian:
 -0.058218493  0.011150050  0.017191397  0.018344835  0.021596524
Length of the computed step             ....  0.483730866
Warning: the length of the step is outside the trust region - taking restricted step instead
The input lambda is                     ....    -0.058218
   iter:   1  x=   -0.110676  g=    2.744982 f(x)=     0.143996
   iter:   2  x=   -0.165651  g=    1.037600 f(x)=     0.057042
   iter:   3  x=   -0.191890  g=    0.569430 f(x)=     0.014941
   iter:   4  x=   -0.195413  g=    0.454098 f(x)=     0.001600
   iter:   5  x=   -0.195464  g=    0.441351 f(x)=     0.000023
   iter:   6  x=   -0.195464  g=    0.441169 f(x)=     0.000000
   iter:   7  x=   -0.195464  g=    0.441169 f(x)=     0.000000
The output lambda is                    ....    -0.195464 (7 iterations)
The final length of the internal step   ....  0.300000000
Converting the step to cartesian space:
 Initial RMS(Int)=    0.0474341649
Transforming coordinates:
 Iter   0:  RMS(Cart)=    0.0559777563 RMS(Int)=    0.9927016939
 Iter   1:  RMS(Cart)=    0.0020627615 RMS(Int)=    0.0013312999
 Iter   2:  RMS(Cart)=    0.0002120811 RMS(Int)=    0.0001515794
 Iter   3:  RMS(Cart)=    0.0000175157 RMS(Int)=    0.0000128096
 Iter   4:  RMS(Cart)=    0.0000014004 RMS(Int)=    0.0000010453
 Iter   5:  RMS(Cart)=    0.0000001206 RMS(Int)=    0.0000000904
 Iter   6:  RMS(Cart)=    0.0000000129 RMS(Int)=    0.0000000094
done
Storing new coordinates                 .... done

                                .--------------------.
          ----------------------|Geometry convergence|-------------------------
          Item                value                   Tolerance       Converged
          ---------------------------------------------------------------------
          Energy change      -0.0536766120            0.0000010000      NO
          RMS gradient        0.0208623109            0.0000300000      NO
          MAX gradient        0.1269339934            0.0001000000      NO
          RMS step            0.0474341649            0.0006000000      NO
          MAX step            0.2805191277            0.0010000000      NO
          ........................................................
          Max(Bonds)      0.1484      Max(Angles)    1.30
          Max(Dihed)        3.83      Max(Improp)    0.00
          ---------------------------------------------------------------------

The optimization has not yet converged - more geometry cycles are needed


    ---------------------------------------------------------------------------
                         Redundant Internal Coordinates
                            (Angstroem and degrees)

        Definition                    Value    dE/dq     Step     New-Value
    ----------------------------------------------------------------------------
     1. B(H   1,C   0)                1.0923  0.001091 -0.0010    1.0913   
     2. B(H   2,C   0)                1.0951 -0.001127  0.0020    1.0971   
     3. B(C   3,C   0)                1.5252  0.002518 -0.0027    1.5225   
     4. B(H   4,C   3)                1.0912  0.002193 -0.0026    1.0887   
     5. B(H   5,C   3)                1.0912  0.002094 -0.0024    1.0888   
     6. B(H   6,C   3)                1.0904  0.002438 -0.0027    1.0877   
     7. B(O   7,C   0)                1.4329  0.002293 -0.0014    1.4315   
     8. B(C   8,O   7)                1.3703  0.030099 -0.0299    1.3404   
     9. B(H   9,C   8)                1.0894 -0.003119  0.0087    1.0981   
    10. B(O  10,C   8)                1.2932  0.126934 -0.1484    1.1448   
    11. A(H   1,C   0,O   7)          107.07  0.005248   -1.30    105.78   
    12. A(H   1,C   0,H   2)          107.45 -0.001817    0.62    108.07   
    13. A(C   3,C   0,O   7)          112.61 -0.003349    0.11    112.72   
    14. A(H   2,C   0,O   7)          107.49 -0.002388    0.71    108.20   
    15. A(H   1,C   0,C   3)          111.03 -0.000017    0.00    111.03   
    16. A(H   2,C   0,C   3)          110.95  0.002380   -0.15    110.80   
    17. A(C   0,C   3,H   6)          111.06  0.003368   -0.61    110.45   
    18. A(H   4,C   3,H   5)          107.73 -0.001724    0.32    108.05   
    19. A(C   0,C   3,H   5)          111.30  0.000056    0.03    111.33   
    20. A(H   5,C   3,H   6)          107.71 -0.001652    0.25    107.96   
    21. A(H   4,C   3,H   6)          107.81 -0.002687    0.42    108.23   
    22. A(C   0,C   3,H   4)          111.06  0.002297   -0.35    110.71   
    23. A(C   0,O   7,C   8)          117.02  0.000467    0.31    117.33   
    24. A(O   7,C   8,O  10)          122.92  0.003874   -0.31    122.61   
    25. A(O   7,C   8,H   9)          113.56 -0.008092    0.94    114.50   
    26. A(H   9,C   8,O  10)          123.52  0.004247   -0.63    122.88   
    27. D(H   4,C   3,C   0,O   7)    -59.78 -0.002526    0.70    -59.07   
    28. D(H   4,C   3,C   0,H   2)    179.69  0.001164   -0.17    179.52   
    29. D(H   5,C   3,C   0,H   1)   -179.69  0.001295   -0.68   -180.37   
    30. D(H   5,C   3,C   0,O   7)     60.26 -0.003124    0.89     61.15   
    31. D(H   6,C   3,C   0,H   1)    -59.69  0.001508   -0.76    -60.45   
    32. D(H   4,C   3,C   0,H   1)     60.28  0.001894   -0.87     59.41   
    33. D(H   6,C   3,C   0,H   2)     59.72  0.000778   -0.06     59.66   
    34. D(H   6,C   3,C   0,O   7)   -179.75 -0.002912    0.81   -178.93   
    35. D(H   5,C   3,C   0,H   2)    -60.27  0.000566    0.01    -60.26   
    36. D(C   8,O   7,C   0,C   3)    -78.51  0.000600    0.05    -78.46   
    37. D(C   8,O   7,C   0,H   2)     43.99 -0.000205    0.41     44.40   
    38. D(C   8,O   7,C   0,H   1)    159.18 -0.000885    0.84    160.02   
    39. D(O  10,C   8,O   7,C   0)   -120.31  0.010685   -3.83   -124.14   
    40. D(H   9,C   8,O   7,C   0)     59.98  0.004561   -1.06     58.93   
    ----------------------------------------------------------------------------

         *************************************************************
         *                GEOMETRY OPTIMIZATION CYCLE   3            *
         *************************************************************
      -----------------------------------------------------------      
     |                   =====================                   |     
     |                           x T B                           |     
     |                   =====================                   |     
     |                         S. Grimme                         |     
     |          Mulliken Center for Theoretical Chemistry        |     
     |                    University of Bonn                     |     
     |                 Version 6.0.1 (SAW181210)                 |     
      -----------------------------------------------------------      

   This program is distributed in the hope that it will be useful,
   but WITHOUT ANY WARRANTY; without even the implied warranty of
   MERCHANTABILITY or FITNESS FOR A PARTICULAR PURPOSE.
   
   FOR NON-COMMERCIAL, ACADEMIA USE ONLY.
   
   Cite this work as:
   S. Grimme, C. Bannwarth, P. Shushkov, J. Comput. Theory Chem., 2017,
   13, 1989-2009.
   C. Bannwarth, S. Ehlert and S. Grimme., ChemRxiv, 2018, preprint.
   http://doi.org/10.26434/chemrxiv.7246238.v1
   
   for sTDA-xTB:
   S. Grimme and C. Bannwarth, J. Chem. Phys., 2016, 145, 054103.
   
   in the mass-spec context:
   V. Asgeirsson, C. Bauer and S. Grimme, Chem. Sci., 2017, 8, 4879.
   
   if GBSA is used:
   P. Shushkov, F. März and S. Grimme, unpublished.
   
   for ANC optimizer:
   S. Grimme, unpublished.
   Rational Function algorithm used in ANCopt:
   F. Eckert, P. Pulay, H.-J. Werner, J. Comput. Chem., 1997, 18, 1473.
   
   with help from (in alphabetical order)
   C. Bannwarth, F. Bohle, G. Brandenburg, E. Caldeweyher, M. Checinski,
   S. Dohm, S. Ehlert, S. Ehrlich, F. März, H. Neugebauer, J. Pisarek,
   P. Pracht, P. Shushkov, and S. Spicher.
   
 * started run on 2020/12/16 at 09:25:05.487     
========================================================================
 # omp threads = 1
========================================================================
calculation namespace      : orca
number of atoms            : 11
number of electrons        : 30
charge                     : 0
spin                       : .0
first test random number   : .0760

########################################################################
# WARNING! Please study the warnings concerning your input carefully
#  - XTBHOME is not set, using HOME instead
#  - XTBPATH is not set, using XTBHOME instead
########################################################################

           ------------------------------------------------- 
          |                 G F N 2 - x T B                 |
          | Geometry, Frequencies, Noncovalent interactions |
          |            JCTC 2018 parametrisation            |
           ------------------------------------------------- 
      method parameters     
 k(s)        :  1.8500
 k(p)        :  2.2300
 k(d)        :  2.2300
 k(f)        :  2.0000
 kEN (H0ij)  : -2.0000
 D4 a1       :  0.5200
 D4 a2       :  5.0000
 D4 s6       :  1.0000
 D4 s8       :  2.7000
 D4 s9       :  5.0000
 alphaj      :  2.0000


            Z     q(EN)     CN     RAES       Cart. coordinates
     1  C   4.0    0.03    4.08    3.77    -0.97103    -0.08749    -2.54030
     2  H   1.0    0.05    1.01    1.43    -1.01332     1.82564    -3.30935
     3  H   1.0    0.05    1.01    1.43     0.73426    -1.02871    -3.25053
     4  C   4.0   -0.07    3.97    3.58    -0.99114    -0.04502     0.33637
     5  H   1.0    0.05    1.00    1.43    -2.67638     0.90356     1.03815
     6  H   1.0    0.05    1.00    1.43    -0.96150    -1.95009     1.11317
     7  H   1.0    0.05    1.00    1.43     0.65523     0.95649     1.05126
     8  O   6.0   -0.19    2.15    1.85    -3.12692    -1.34677    -3.58157
     9  C   4.0    0.19    3.12    3.03    -3.10832    -3.87970    -3.57802
    10  H   1.0    0.05    1.00    1.43    -2.92596    -4.73559    -1.69640
    11  O   6.0   -0.27    1.12    1.80    -3.36670    -5.04932    -5.37943

  Z AO/shell   Hii/eV     exponent
  1     Wed Apr 25 08:07:45 CEST 2018   EN: 2.200 GM2: 0.406  GM3: 0.0800  RAES: 1.40
     1s    -10.707211    1.230000
  6     Wed Apr 25 08:07:45 CEST 2018   EN: 2.550 GM2: 0.538  GM3: 0.1500  RAES: 3.00
     2s    -13.970922    2.096432
     2p    -10.063292    1.800000
  8     Wed Apr 25 08:07:45 CEST 2018   EN: 3.440 GM2: 0.452  GM3:-0.0517  RAES: 1.80
     2s    -20.229985    2.439742
     2p    -15.503117    2.137023
 no old-style atom pair restraining (fixing) potential
           ------------------------------------------------- 
          |        Self-Consistent Charge Iterations        |
           ------------------------------------------------- 

 Ncao       : 26
 Nao        : 26
 Nshell     : 16
 Nel        : 30
 T(el)      :   300.0
 intcut     :    25.0
 scfconv/Eh :  0.100E-05
   qconv/e  :  0.100E-03
 intneglect :  0.100E-07
 broydamp   :      0.250
 iter      E             dE          RMSdq      gap      omega  full diag
   1    -17.7185641 -0.177186E+02  0.544E+00    5.76       0.0  T
   2    -17.7734653 -0.549012E-01  0.347E+00    5.07       1.0  T
   3    -17.7776394 -0.417405E-02  0.147E+00    4.67       1.0  T
   4    -17.7790797 -0.144033E-02  0.344E-01    4.83       1.0  T
   5    -17.7791475 -0.677659E-04  0.209E-01    4.75       1.0  T
   6    -17.7794522 -0.304724E-03  0.737E-02    4.82       1.0  T
   7    -17.7794649 -0.127068E-04  0.180E-02    4.80       1.7  T
   8    -17.7794656 -0.650021E-06  0.970E-03    4.80       3.1  T
   9    -17.7794659 -0.343229E-06  0.476E-03    4.80       6.3  T
  10    -17.7794661 -0.156662E-06  0.127E-03    4.80      23.8  T
  11    -17.7794661  0.288868E-08  0.787E-04    4.80      38.3  T
  12    -17.7794661 -0.459184E-08  0.175E-04    4.80     172.7  T
speedup  1.00
cpu  time for SCC    0.00 s
wall time for SCC    0.00 s

   *** convergence criteria satisfied after 12 iterations ***

          eigenvalues
 #    :           3          4          5          6          7          8          9         10
 occ. :        2.000      2.000      2.000      2.000      2.000      2.000      2.000      2.000
 eps  :       -18.371    -17.539    -16.861    -16.555    -15.879    -15.521    -14.547    -14.491
 #    :          11         12         13         14         15         16         17         18
 occ. :        2.000      2.000      2.000      2.000      2.000      0.000      0.000      0.000
 eps  :       -13.894    -13.285    -12.850    -12.171    -11.665     -6.866      0.266      2.415
 #    :          19         20         21         22         23         24         25         26
 occ. :        0.000      0.000      0.000      0.000      0.000      0.000      0.000      0.000
 eps  :         3.152      3.261      4.296      4.577      5.801      6.840      8.460     21.794


   #   Z            q   n(s)   n(p)   n(d)      C6AA      α(0)
   1   6 C      0.080  1.038  2.882  0.000    19.412     6.303
   2   1 H      0.072  0.928  0.000  0.000     2.059     2.244
   3   1 H      0.040  0.960  0.000  0.000     2.447     2.447
   4   6 C     -0.120  1.036  3.084  0.000    22.858     6.819
   5   1 H      0.060  0.940  0.000  0.000     2.200     2.319
   6   1 H      0.049  0.951  0.000  0.000     2.331     2.387
   7   1 H      0.054  0.946  0.000  0.000     2.270     2.356
   8   8 O     -0.289  1.660  4.629  0.000    18.805     5.855
   9   6 C      0.360  1.014  2.626  0.000    20.901     7.480
  10   1 H     -0.002  1.002  0.000  0.000     3.101     2.754
  11   8 O     -0.304  1.701  4.603  0.000    19.851     5.974

 Mol. C6AA /au·bohr⁶  :       1006.662300
 Mol. C8AA /au·bohr⁸  :      21118.081583
 Mol. α(0) /au        :         46.936712

 
 Wiberg/Mayer (AO) data. WBOs > 0.1 written file <wbo>
 largest (>0.05) Wiberg bond orders for each atom
           total WBO             WBO to atom ...
     1  C   3.924    C    4 1.015    H    3 0.975    H    2 0.969    O    8 0.923
     2  H   0.995    C    1 0.969
     3  H   0.998    C    1 0.975
     4  C   3.992    C    1 1.015    H    5 0.985    H    6 0.984    H    7 0.982
     5  H   0.996    C    4 0.985
     6  H   0.998    C    4 0.984
     7  H   0.997    C    4 0.982
     8  O   2.212    C    9 1.077    C    1 0.923    O   11 0.140
     9  C   3.919    O   11 1.907    O    8 1.077    H   10 0.911
    10  H   1.000    C    9 0.911    O   11 0.056
    11  O   2.140    C    9 1.907    O    8 0.140    H   10 0.056
 MOs/occ written to file <molden.input>
 
molecular dipole:
                 x           y           z       tot (Debye)
 q only:        0.641       0.640       0.948
   full:        0.718       0.629       1.174       3.847
molecular quadrupole (traceless):
                xx          xy          yy          xz          yz          zz
 q only:        1.906      -3.393       1.790      -6.828      -7.433      -3.696
  q+dip:        2.888      -4.431       2.345      -9.037     -10.048      -5.234
   full:        3.698      -4.082       2.067      -8.900      -9.726      -5.765
speedup  1.00
cpu  time for grad    0.01 s
wall time for grad    0.01 s

SCC energy    :     -17.7794661
rep           :       0.1931861
ES            :       0.0382000
AES           :       0.0027967
AXC           :       0.0019618
disp          :      -0.0049161
XB            :       0.0000000
fix           :       0.0000000
grad norm     :       0.1175060
total E       :     -17.5862776
atomizationE  :       2.8251570     1772.81
(atE without considering molecular charge,
 total energy contains solvation terms)
H-L gap (eV)  :          4.7987

------------------------------------------------------------------------
 * finished run on 2020/12/16 at 09:25:05.511     
------------------------------------------------------------------------
 total:
 * wall-time:     0 d,  0 h,  0 min,  0.022 sec
 *  cpu-time:     0 d,  0 h,  0 min,  0.017 sec
 * ratio c/w:     0.766 speedup
 SCF:
 * wall-time:     0 d,  0 h,  0 min,  0.009 sec
 *  cpu-time:     0 d,  0 h,  0 min,  0.009 sec
 * ratio c/w:     1.005 speedup


-------------------------   --------------------
FINAL SINGLE POINT ENERGY       -17.586277589920
-------------------------   --------------------

------------------------------------------------------------------------------
                         ORCA GEOMETRY RELAXATION STEP
------------------------------------------------------------------------------

Reading the OPT-File                    .... done
Getting information on internals        .... done
Copying old internal coords+grads       .... done
Making the new internal coordinates     .... (new redundants).... done
Validating the new internal coordinates .... (new redundants).... done
Calculating the B-matrix                .... done
Calculating the G,G- and P matrices     .... done
Transforming gradient to internals      .... done
Projecting the internal gradient        .... done
Number of atoms                         ....  11
Number of internal coordinates          ....  40
Current Energy                          ....   -17.586277590 Eh
Current gradient norm                   ....     0.117506042 Eh/bohr
Maximum allowed component of the step   ....  0.300
Current trust radius                    ....  0.300
Updating the Hessian (BFGS)             .... done
Forming the augmented Hessian           .... done
Diagonalizing the augmented Hessian     .... done
Last element of RFO vector              ....  0.942472702
Lowest eigenvalues of augmented Hessian:
 -0.014291355  0.011153430  0.017170113  0.018469715  0.021958422
Length of the computed step             ....  0.354687325
Warning: the length of the step is outside the trust region - taking restricted step instead
The input lambda is                     ....    -0.014291
   iter:   1  x=   -0.019487  g=    6.891199 f(x)=     0.035803
   iter:   2  x=   -0.021064  g=    4.438171 f(x)=     0.006998
   iter:   3  x=   -0.021168  g=    3.930983 f(x)=     0.000411
   iter:   4  x=   -0.021168  g=    3.900188 f(x)=     0.000002
   iter:   5  x=   -0.021168  g=    3.900067 f(x)=     0.000000
   iter:   6  x=   -0.021168  g=    3.900067 f(x)=     0.000000
The output lambda is                    ....    -0.021168 (6 iterations)
The final length of the internal step   ....  0.300000000
Converting the step to cartesian space:
 Initial RMS(Int)=    0.0474341649
Transforming coordinates:
 Iter   0:  RMS(Cart)=    0.0864955866 RMS(Int)=    0.0481548806
 Iter   1:  RMS(Cart)=    0.0072517836 RMS(Int)=    0.0057570951
 Iter   2:  RMS(Cart)=    0.0011352004 RMS(Int)=    0.0008383470
 Iter   3:  RMS(Cart)=    0.0002062123 RMS(Int)=    0.0001404533
 Iter   4:  RMS(Cart)=    0.0000362566 RMS(Int)=    0.0000321360
 Iter   5:  RMS(Cart)=    0.0000063496 RMS(Int)=    0.0000038579
 Iter   6:  RMS(Cart)=    0.0000012081 RMS(Int)=    0.0000011050
 Iter   7:  RMS(Cart)=    0.0000002070 RMS(Int)=    0.0000001394
 Iter   8:  RMS(Cart)=    0.0000000398 RMS(Int)=    0.0000000340
done
Storing new coordinates                 .... done

                                .--------------------.
          ----------------------|Geometry convergence|-------------------------
          Item                value                   Tolerance       Converged
          ---------------------------------------------------------------------
          Energy change      -0.0122947774            0.0000010000      NO
          RMS gradient        0.0145940310            0.0000300000      NO
          MAX gradient        0.0896313868            0.0001000000      NO
          RMS step            0.0474341649            0.0006000000      NO
          MAX step            0.2221971993            0.0010000000      NO
          ........................................................
          Max(Bonds)      0.0584      Max(Angles)    0.66
          Max(Dihed)       12.73      Max(Improp)    0.00
          ---------------------------------------------------------------------

The optimization has not yet converged - more geometry cycles are needed


    ---------------------------------------------------------------------------
                         Redundant Internal Coordinates
                            (Angstroem and degrees)

        Definition                    Value    dE/dq     Step     New-Value
    ----------------------------------------------------------------------------
     1. B(H   1,C   0)                1.0913  0.000211 -0.0005    1.0908   
     2. B(H   2,C   0)                1.0971  0.000125 -0.0003    1.0968   
     3. B(C   3,C   0)                1.5225  0.000136 -0.0006    1.5219   
     4. B(H   4,C   3)                1.0887  0.000743 -0.0010    1.0876   
     5. B(H   5,C   3)                1.0888  0.000810 -0.0011    1.0877   
     6. B(H   6,C   3)                1.0877  0.000609 -0.0010    1.0866   
     7. B(O   7,C   0)                1.4315 -0.000018 -0.0007    1.4308   
     8. B(C   8,O   7)                1.3404 -0.009902  0.0040    1.3444   
     9. B(H   9,C   8)                1.0981 -0.010337  0.0070    1.1051   
    10. B(O  10,C   8)                1.1448 -0.089631  0.0584    1.2032   
    11. A(H   1,C   0,O   7)          105.78  0.002903   -0.66    105.12   
    12. A(H   1,C   0,H   2)          108.07 -0.001145    0.10    108.17   
    13. A(C   3,C   0,O   7)          112.72 -0.002954    0.44    113.16   
    14. A(H   2,C   0,O   7)          108.20 -0.000990    0.47    108.66   
    15. A(H   1,C   0,C   3)          111.04  0.000845   -0.41    110.63   
    16. A(H   2,C   0,C   3)          110.79  0.001386    0.06    110.85   
    17. A(C   0,C   3,H   6)          110.45  0.002072   -0.26    110.19   
    18. A(H   4,C   3,H   5)          108.05 -0.001202    0.21    108.27   
    19. A(C   0,C   3,H   5)          111.33  0.000252   -0.03    111.30   
    20. A(H   5,C   3,H   6)          107.96 -0.001140    0.12    108.08   
    21. A(H   4,C   3,H   6)          108.23 -0.001685    0.17    108.40   
    22. A(C   0,C   3,H   4)          110.71  0.001516   -0.18    110.53   
    23. A(C   0,O   7,C   8)          117.33 -0.003443    0.09    117.42   
    24. A(O   7,C   8,O  10)          122.59 -0.006612    0.45    123.04   
    25. A(O   7,C   8,H   9)          114.48  0.006638   -0.40    114.08   
    26. A(H   9,C   8,O  10)          122.86  0.000002   -0.02    122.84   
    27. D(H   4,C   3,C   0,O   7)    -59.07 -0.001505    0.77    -58.30   
    28. D(H   4,C   3,C   0,H   2)    179.52  0.000842   -0.15    179.36   
    29. D(H   5,C   3,C   0,H   1)    179.63  0.000471    0.09    179.72   
    30. D(H   5,C   3,C   0,O   7)     61.15 -0.001836    0.90     62.05   
    31. D(H   6,C   3,C   0,H   1)    -60.45  0.000581    0.04    -60.40   
    32. D(H   4,C   3,C   0,H   1)     59.41  0.000802   -0.04     59.37   
    33. D(H   6,C   3,C   0,H   2)     59.66  0.000620   -0.07     59.59   
    34. D(H   6,C   3,C   0,O   7)   -178.93 -0.001726    0.86   -178.08   
    35. D(H   5,C   3,C   0,H   2)    -60.26  0.000510   -0.02    -60.29   
    36. D(C   8,O   7,C   0,C   3)    -78.46  0.000777   -0.53    -78.99   
    37. D(C   8,O   7,C   0,H   2)     44.41 -0.000122    0.11     44.52   
    38. D(C   8,O   7,C   0,H   1)    160.02 -0.000457    0.14    160.16   
    39. D(O  10,C   8,O   7,C   0)   -124.14  0.008453  -12.73   -136.87   
    40. D(H   9,C   8,O   7,C   0)     58.93  0.007853   -9.41     49.52   
    ----------------------------------------------------------------------------

         *************************************************************
         *                GEOMETRY OPTIMIZATION CYCLE   4            *
         *************************************************************
      -----------------------------------------------------------      
     |                   =====================                   |     
     |                           x T B                           |     
     |                   =====================                   |     
     |                         S. Grimme                         |     
     |          Mulliken Center for Theoretical Chemistry        |     
     |                    University of Bonn                     |     
     |                 Version 6.0.1 (SAW181210)                 |     
      -----------------------------------------------------------      

   This program is distributed in the hope that it will be useful,
   but WITHOUT ANY WARRANTY; without even the implied warranty of
   MERCHANTABILITY or FITNESS FOR A PARTICULAR PURPOSE.
   
   FOR NON-COMMERCIAL, ACADEMIA USE ONLY.
   
   Cite this work as:
   S. Grimme, C. Bannwarth, P. Shushkov, J. Comput. Theory Chem., 2017,
   13, 1989-2009.
   C. Bannwarth, S. Ehlert and S. Grimme., ChemRxiv, 2018, preprint.
   http://doi.org/10.26434/chemrxiv.7246238.v1
   
   for sTDA-xTB:
   S. Grimme and C. Bannwarth, J. Chem. Phys., 2016, 145, 054103.
   
   in the mass-spec context:
   V. Asgeirsson, C. Bauer and S. Grimme, Chem. Sci., 2017, 8, 4879.
   
   if GBSA is used:
   P. Shushkov, F. März and S. Grimme, unpublished.
   
   for ANC optimizer:
   S. Grimme, unpublished.
   Rational Function algorithm used in ANCopt:
   F. Eckert, P. Pulay, H.-J. Werner, J. Comput. Chem., 1997, 18, 1473.
   
   with help from (in alphabetical order)
   C. Bannwarth, F. Bohle, G. Brandenburg, E. Caldeweyher, M. Checinski,
   S. Dohm, S. Ehlert, S. Ehrlich, F. März, H. Neugebauer, J. Pisarek,
   P. Pracht, P. Shushkov, and S. Spicher.
   
 * started run on 2020/12/16 at 09:25:05.562     
========================================================================
 # omp threads = 1
========================================================================
calculation namespace      : orca
number of atoms            : 11
number of electrons        : 30
charge                     : 0
spin                       : .0
first test random number   : .6313

########################################################################
# WARNING! Please study the warnings concerning your input carefully
#  - XTBHOME is not set, using HOME instead
#  - XTBPATH is not set, using XTBHOME instead
########################################################################

           ------------------------------------------------- 
          |                 G F N 2 - x T B                 |
          | Geometry, Frequencies, Noncovalent interactions |
          |            JCTC 2018 parametrisation            |
           ------------------------------------------------- 
      method parameters     
 k(s)        :  1.8500
 k(p)        :  2.2300
 k(d)        :  2.2300
 k(f)        :  2.0000
 kEN (H0ij)  : -2.0000
 D4 a1       :  0.5200
 D4 a2       :  5.0000
 D4 s6       :  1.0000
 D4 s8       :  2.7000
 D4 s9       :  5.0000
 alphaj      :  2.0000


            Z     q(EN)     CN     RAES       Cart. coordinates
     1  C   4.0    0.03    4.08    3.77    -0.93824    -0.09769    -2.51841
     2  H   1.0    0.05    1.01    1.43    -0.97385     1.81237    -3.29275
     3  H   1.0    0.05    1.01    1.43     0.78688    -1.03353    -3.18488
     4  C   4.0   -0.07    3.97    3.58    -1.01882    -0.02788     0.35559
     5  H   1.0    0.05    1.00    1.43    -2.72241     0.92042     1.00596
     6  H   1.0    0.05    1.00    1.43    -0.99365    -1.92372     1.14945
     7  H   1.0    0.05    1.00    1.43     0.60829     0.99016     1.08553
     8  O   6.0   -0.18    2.13    1.84    -3.07495    -1.34246    -3.61174
     9  C   4.0    0.18    3.11    3.02    -3.07403    -3.88307    -3.61460
    10  H   1.0    0.05    0.99    1.43    -2.63087    -4.73389    -1.75962
    11  O   6.0   -0.26    1.09    1.80    -3.72013    -5.11772    -5.41117

  Z AO/shell   Hii/eV     exponent
  1     Wed Apr 25 08:07:45 CEST 2018   EN: 2.200 GM2: 0.406  GM3: 0.0800  RAES: 1.40
     1s    -10.707211    1.230000
  6     Wed Apr 25 08:07:45 CEST 2018   EN: 2.550 GM2: 0.538  GM3: 0.1500  RAES: 3.00
     2s    -13.970922    2.096432
     2p    -10.063292    1.800000
  8     Wed Apr 25 08:07:45 CEST 2018   EN: 3.440 GM2: 0.452  GM3:-0.0517  RAES: 1.80
     2s    -20.229985    2.439742
     2p    -15.503117    2.137023
 no old-style atom pair restraining (fixing) potential
           ------------------------------------------------- 
          |        Self-Consistent Charge Iterations        |
           ------------------------------------------------- 

 Ncao       : 26
 Nao        : 26
 Nshell     : 16
 Nel        : 30
 T(el)      :   300.0
 intcut     :    25.0
 scfconv/Eh :  0.100E-05
   qconv/e  :  0.100E-03
 intneglect :  0.100E-07
 broydamp   :      0.250
 iter      E             dE          RMSdq      gap      omega  full diag
   1    -17.6927416 -0.176927E+02  0.542E+00    5.39       0.0  T
   2    -17.7587528 -0.660113E-01  0.334E+00    4.63       1.0  T
   3    -17.7621455 -0.339264E-02  0.157E+00    4.33       1.0  T
   4    -17.7631149 -0.969417E-03  0.320E-01    4.50       1.0  T
   5    -17.7630918  0.231129E-04  0.231E-01    4.38       1.0  T
   6    -17.7635082 -0.416416E-03  0.754E-02    4.45       1.0  T
   7    -17.7635163 -0.811812E-05  0.206E-02    4.44       1.5  T
   8    -17.7635166 -0.333956E-06  0.134E-02    4.44       2.3  T
   9    -17.7635175 -0.888261E-06  0.475E-03    4.44       6.3  T
  10    -17.7635177 -0.155283E-06  0.147E-03    4.44      20.6  T
  11    -17.7635177  0.210154E-08  0.708E-04    4.44      42.6  T
  12    -17.7635177 -0.388627E-08  0.153E-04    4.44     197.0  T
speedup  1.17
cpu  time for SCC    0.00 s
wall time for SCC    0.00 s

   *** convergence criteria satisfied after 12 iterations ***

          eigenvalues
 #    :           3          4          5          6          7          8          9         10
 occ. :        2.000      2.000      2.000      2.000      2.000      2.000      2.000      2.000
 eps  :       -18.393    -17.548    -16.853    -16.422    -15.753    -15.483    -14.520    -14.355
 #    :          11         12         13         14         15         16         17         18
 occ. :        2.000      2.000      2.000      2.000      2.000      0.000      0.000      0.000
 eps  :       -13.918    -13.359    -12.881    -12.330    -11.678     -7.237     -0.036      2.286
 #    :          19         20         21         22         23         24         25         26
 occ. :        0.000      0.000      0.000      0.000      0.000      0.000      0.000      0.000
 eps  :         2.812      3.162      4.120      4.476      5.693      6.744      7.947     15.886


   #   Z            q   n(s)   n(p)   n(d)      C6AA      α(0)
   1   6 C      0.076  1.038  2.886  0.000    19.481     6.314
   2   1 H      0.074  0.926  0.000  0.000     2.038     2.233
   3   1 H      0.043  0.957  0.000  0.000     2.407     2.426
   4   6 C     -0.120  1.035  3.085  0.000    22.863     6.819
   5   1 H      0.061  0.939  0.000  0.000     2.185     2.312
   6   1 H      0.050  0.950  0.000  0.000     2.317     2.380
   7   1 H      0.056  0.944  0.000  0.000     2.248     2.345
   8   8 O     -0.264  1.664  4.600  0.000    18.375     5.788
   9   6 C      0.340  1.026  2.634  0.000    21.224     7.537
  10   1 H      0.013  0.987  0.000  0.000     2.848     2.639
  11   8 O     -0.329  1.732  4.597  0.000    20.321     6.044

 Mol. C6AA /au·bohr⁶  :       1002.620198
 Mol. C8AA /au·bohr⁸  :      21078.444114
 Mol. α(0) /au        :         46.837087

 
 Wiberg/Mayer (AO) data. WBOs > 0.1 written file <wbo>
 largest (>0.05) Wiberg bond orders for each atom
           total WBO             WBO to atom ...
     1  C   3.924    C    4 1.015    H    3 0.974    H    2 0.969    O    8 0.928
     2  H   0.994    C    1 0.969
     3  H   0.998    C    1 0.974
     4  C   3.992    C    1 1.015    H    5 0.985    H    6 0.983    H    7 0.982
     5  H   0.996    C    4 0.985
     6  H   0.997    C    4 0.983
     7  H   0.997    C    4 0.982
     8  O   2.264    C    9 1.118    C    1 0.928    O   11 0.153
     9  C   3.920    O   11 1.857    O    8 1.118    H   10 0.919
    10  H   1.000    C    9 0.919    O   11 0.051
    11  O   2.096    C    9 1.857    O    8 0.153    H   10 0.051
 MOs/occ written to file <molden.input>
 
molecular dipole:
                 x           y           z       tot (Debye)
 q only:        0.788       0.761       1.048
   full:        0.908       0.764       1.269       4.415
molecular quadrupole (traceless):
                xx          xy          yy          xz          yz          zz
 q only:        1.715      -4.995       1.838      -8.340      -8.698      -3.553
  q+dip:        2.393      -6.501       2.434     -10.789     -11.306      -4.827
   full:        3.127      -6.158       2.130     -10.893     -10.992      -5.257
speedup  1.00
cpu  time for grad    0.01 s
wall time for grad    0.01 s

SCC energy    :     -17.7635177
rep           :       0.1704201
ES            :       0.0390083
AES           :       0.0031837
AXC           :       0.0027984
disp          :      -0.0048459
XB            :       0.0000000
fix           :       0.0000000
grad norm     :       0.0340532
total E       :     -17.5930954
atomizationE  :       2.8319748     1777.09
(atE without considering molecular charge,
 total energy contains solvation terms)
H-L gap (eV)  :          4.4409

------------------------------------------------------------------------
 * finished run on 2020/12/16 at 09:25:05.585     
------------------------------------------------------------------------
 total:
 * wall-time:     0 d,  0 h,  0 min,  0.022 sec
 *  cpu-time:     0 d,  0 h,  0 min,  0.017 sec
 * ratio c/w:     0.747 speedup
 SCF:
 * wall-time:     0 d,  0 h,  0 min,  0.009 sec
 *  cpu-time:     0 d,  0 h,  0 min,  0.009 sec
 * ratio c/w:     0.995 speedup


-------------------------   --------------------
FINAL SINGLE POINT ENERGY       -17.593095387610
-------------------------   --------------------

------------------------------------------------------------------------------
                         ORCA GEOMETRY RELAXATION STEP
------------------------------------------------------------------------------

Reading the OPT-File                    .... done
Getting information on internals        .... done
Copying old internal coords+grads       .... done
Making the new internal coordinates     .... (new redundants).... done
Validating the new internal coordinates .... (new redundants).... done
Calculating the B-matrix                .... done
Calculating the G,G- and P matrices     .... done
Transforming gradient to internals      .... done
Projecting the internal gradient        .... done
Number of atoms                         ....  11
Number of internal coordinates          ....  40
Current Energy                          ....   -17.593095388 Eh
Current gradient norm                   ....     0.034053247 Eh/bohr
Maximum allowed component of the step   ....  0.300
Current trust radius                    ....  0.300
Updating the Hessian (BFGS)             .... done
Forming the augmented Hessian           .... done
Diagonalizing the augmented Hessian     .... done
Last element of RFO vector              ....  0.860683834
Lowest eigenvalues of augmented Hessian:
 -0.008010388  0.011152334  0.017169790  0.019602430  0.021187691
Length of the computed step             ....  0.591552649
Warning: the length of the step is outside the trust region - taking restricted step instead
The input lambda is                     ....    -0.008010
   iter:   1  x=   -0.015908  g=   32.914337 f(x)=     0.259935
   iter:   2  x=   -0.023466  g=   12.733369 f(x)=     0.096242
   iter:   3  x=   -0.027813  g=    6.373251 f(x)=     0.027703
   iter:   4  x=   -0.028744  g=    4.555643 f(x)=     0.004245
   iter:   5  x=   -0.028777  g=    4.259099 f(x)=     0.000140
   iter:   6  x=   -0.028777  g=    4.249098 f(x)=     0.000000
   iter:   7  x=   -0.028777  g=    4.249086 f(x)=     0.000000
   iter:   8  x=   -0.028777  g=    4.249086 f(x)=     0.000000
The output lambda is                    ....    -0.028777 (8 iterations)
The final length of the internal step   ....  0.300000000
Converting the step to cartesian space:
 Initial RMS(Int)=    0.0474341649
Transforming coordinates:
 Iter   0:  RMS(Cart)=    0.0918142291 RMS(Int)=    0.0476123933
 Iter   1:  RMS(Cart)=    0.0095848532 RMS(Int)=    0.0083396898
 Iter   2:  RMS(Cart)=    0.0022127573 RMS(Int)=    0.0015496414
 Iter   3:  RMS(Cart)=    0.0005362311 RMS(Int)=    0.0004259471
 Iter   4:  RMS(Cart)=    0.0001255392 RMS(Int)=    0.0001069886
 Iter   5:  RMS(Cart)=    0.0000313061 RMS(Int)=    0.0000212248
 Iter   6:  RMS(Cart)=    0.0000071457 RMS(Int)=    0.0000068073
 Iter   7:  RMS(Cart)=    0.0000018150 RMS(Int)=    0.0000010599
 Iter   8:  RMS(Cart)=    0.0000004120 RMS(Int)=    0.0000004108
 Iter   9:  RMS(Cart)=    0.0000001043 RMS(Int)=    0.0000000585
 Iter  10:  RMS(Cart)=    0.0000000240 RMS(Int)=    0.0000000234
done
Storing new coordinates                 .... done

                                .--------------------.
          ----------------------|Geometry convergence|-------------------------
          Item                value                   Tolerance       Converged
          ---------------------------------------------------------------------
          Energy change      -0.0068177977            0.0000010000      NO
          RMS gradient        0.0042621212            0.0000300000      NO
          MAX gradient        0.0215403832            0.0001000000      NO
          RMS step            0.0474341649            0.0006000000      NO
          MAX step            0.2762110537            0.0010000000      NO
          ........................................................
          Max(Bonds)      0.0053      Max(Angles)    0.65
          Max(Dihed)       15.83      Max(Improp)    0.00
          ---------------------------------------------------------------------

The optimization has not yet converged - more geometry cycles are needed


    ---------------------------------------------------------------------------
                         Redundant Internal Coordinates
                            (Angstroem and degrees)

        Definition                    Value    dE/dq     Step     New-Value
    ----------------------------------------------------------------------------
     1. B(H   1,C   0)                1.0908 -0.000471  0.0005    1.0913   
     2. B(H   2,C   0)                1.0968  0.000450 -0.0006    1.0962   
     3. B(C   3,C   0)                1.5219 -0.000387  0.0003    1.5222   
[...]
     15       0.036411   0.238716  -0.537882  -0.100444  -0.291620  -0.130587
     16      -0.332434   0.052369  -0.020615   0.020623  -0.185426  -0.078399
     17      -0.219580   0.047440  -0.109728  -0.039204  -0.418529  -0.215713
     18      -0.147577   0.133882   0.294068   0.142307  -0.274124  -0.168359
     19      -0.211615   0.108567  -0.530267  -0.131374  -0.169876  -0.030952
     20       0.106545  -0.120058   0.065393   0.041115   0.188948   0.456643
     21       0.082005  -0.046094  -0.034049   0.147153  -0.009298   0.084775
     22       0.080163  -0.017344   0.022318  -0.166882  -0.060770   0.101409
     23      -0.217926   0.021870  -0.005710  -0.025423   0.272587   0.084596
     24      -0.014671  -0.106597   0.003174   0.042445   0.057634  -0.258800
     25       0.048605  -0.033416   0.017930  -0.162074  -0.020074   0.022521
     26       0.152629   0.211591   0.014843  -0.024441   0.108552  -0.091242
     27      -0.129260  -0.325043   0.011577  -0.030174   0.050209  -0.214299
     28       0.053767  -0.073871   0.055476  -0.318770  -0.090796   0.043812
     29       0.488557   0.780917   0.048543  -0.070414   0.007741  -0.095774
     30       0.018342   0.066223   0.040555  -0.128797   0.020016  -0.084549
     31       0.013054  -0.008426  -0.029742   0.083318   0.132502  -0.325893
     32       0.130982  -0.213388   0.003887  -0.026710  -0.030406  -0.065084
                 12         13         14         15         16         17    
      0       0.026508   0.091522   0.033268  -0.065562  -0.102017   0.216060
      1      -0.086458   0.047226   0.012430  -0.145408  -0.060257  -0.054296
      2       0.013439  -0.042479  -0.034329  -0.191513   0.205264   0.082540
      3      -0.372234   0.138958   0.051162  -0.468098  -0.289730  -0.382296
      4       0.118644   0.013294   0.000382  -0.233890  -0.115485  -0.067092
      5       0.346027  -0.079305  -0.042924  -0.471078   0.030348  -0.040736
      6       0.131792  -0.063401  -0.022039   0.079889  -0.048460   0.443106
      7       0.262706  -0.095802  -0.042121   0.077739   0.029799   0.346398
      8      -0.406773  -0.221302  -0.108716  -0.193311   0.150633   0.168871
      9       0.013515   0.080159   0.030188  -0.003727   0.133839  -0.082543
     10      -0.033674   0.041249   0.019180   0.072645   0.069643   0.053054
     11      -0.000578   0.130409   0.072527   0.161998  -0.143175  -0.031720
     12       0.013094  -0.094656  -0.036463  -0.079050  -0.093567   0.023365
     13       0.144339  -0.085894  -0.025779  -0.090413  -0.179635   0.002610
     14      -0.434377  -0.244671  -0.077425   0.243970  -0.392655   0.447990
     15      -0.165819  -0.156453  -0.062846  -0.034363  -0.092369   0.195292
     16       0.185718  -0.025404  -0.005597  -0.072691  -0.133833  -0.068745
     17       0.403923  -0.044665   0.007484  -0.125336  -0.558210  -0.213036
     18      -0.062035  -0.204827  -0.084788  -0.072866  -0.133480   0.142368
     19       0.142633   0.041799   0.021481  -0.063111  -0.041017  -0.137377
     20      -0.066561   0.657019   0.281631   0.426186   0.462199  -0.204650
     21      -0.005154  -0.162309  -0.038932   0.111450   0.021055  -0.143810
     22       0.010518  -0.033437  -0.005324  -0.043609  -0.025967  -0.108056
     23      -0.002684  -0.063041  -0.082378   0.034258  -0.030187  -0.063400
     24      -0.006206   0.107842  -0.051789  -0.070480  -0.023459  -0.018770
     25       0.026744  -0.078720  -0.051853   0.159469   0.050382   0.081569
     26      -0.002703  -0.087184   0.203336  -0.032840  -0.001742   0.002838
     27      -0.003690  -0.115826   0.349307  -0.067611   0.008069   0.025750
     28       0.040063  -0.085860   0.057794   0.133514   0.057580   0.137196
     29       0.004860   0.464075  -0.830554   0.054205  -0.036235  -0.011162
     30       0.008679  -0.016275   0.017930   0.033934   0.013590   0.029466
     31       0.003260   0.041101   0.020132  -0.005806   0.005201   0.034332
     32       0.004691   0.029016  -0.050406   0.016672   0.006551   0.013837
                 18         19         20         21         22         23    
      0      -0.004358  -0.009417  -0.046112  -0.012278  -0.002981   0.060819
      1       0.176593  -0.006912  -0.040196  -0.005265  -0.007120   0.025680
      2       0.022395  -0.010021  -0.116935  -0.002826  -0.023909  -0.047763
      3       0.146225  -0.292465   0.262304   0.154242  -0.008798  -0.616311
      4      -0.065760  -0.228958   0.251842  -0.002833   0.035107   0.177334
      5      -0.387430  -0.525362   0.556996   0.022696   0.065640   0.239685
      6      -0.132073   0.304468   0.286718   0.057520   0.048508  -0.269903
      7      -0.169281   0.266130   0.222652   0.099740   0.033684  -0.562826
      8       0.341244   0.555435   0.580629  -0.050335   0.134188   0.321315
      9       0.050431   0.031654   0.041420  -0.006935   0.000369  -0.002361
     10      -0.128695  -0.059610   0.015825   0.019939   0.014222   0.004219
     11       0.015977   0.010292  -0.016084   0.096198   0.090246   0.012070
     12       0.075126   0.028029  -0.003377  -0.126727  -0.105303  -0.011146
     13       0.120395   0.028684  -0.061422  -0.034480  -0.016708   0.009679
     14      -0.443995  -0.197509   0.039283  -0.381446  -0.367145  -0.068280
     15      -0.124385  -0.075179  -0.065428  -0.002706  -0.009681   0.035015
     16       0.120614   0.042325   0.042306  -0.174261  -0.159698  -0.023455
     17       0.445299   0.183442   0.037786  -0.341796  -0.310886  -0.045357
     18      -0.068865  -0.031280  -0.066656   0.210319   0.176496   0.033451
     19       0.165761   0.061367   0.004351  -0.000425   0.020314  -0.016425
     20      -0.097390  -0.015392   0.200324  -0.367906  -0.321305  -0.034211
     21      -0.004452  -0.022290  -0.016851   0.012362  -0.021811   0.009116
     22      -0.218704   0.099262  -0.034869  -0.019645   0.011130   0.010615
     23      -0.024668   0.001937   0.009699   0.004894  -0.005490   0.001732
     24      -0.087393   0.036041  -0.013022  -0.003828   0.000437   0.005770
     25       0.194757  -0.078840   0.020600  -0.034215   0.043997  -0.018953
     26      -0.015856   0.005744  -0.000381  -0.003675   0.004674   0.000649
     27      -0.030599   0.050051   0.021186   0.270890  -0.304158   0.066878
     28       0.159100   0.033661   0.093007   0.598765  -0.657951   0.116628
     29      -0.016506   0.019654   0.016014   0.160378  -0.176615   0.039375
     30       0.043951  -0.020429   0.002758  -0.030570   0.036230  -0.009324
     31       0.015691  -0.002937   0.002876   0.003664  -0.002537   0.000009
     32       0.017768  -0.007730   0.000288  -0.011849   0.013679  -0.003934
                 24         25         26         27         28         29    
      0       0.009226  -0.014420   0.005647   0.000766  -0.060389  -0.005898
      1      -0.010447  -0.010269   0.019568  -0.002201   0.045009  -0.066753
      2       0.000743  -0.005856   0.001232  -0.000179   0.014044   0.033710
      3      -0.023146   0.030557   0.000579   0.000934  -0.031635   0.060497
      4       0.005301   0.004462   0.022659   0.003694  -0.017231   0.893013
      5       0.031816   0.031092   0.009815  -0.002848   0.027875  -0.418995
      6       0.001445   0.020712   0.010299   0.000511   0.818933   0.035722
      7      -0.014165   0.032903   0.003288   0.012124  -0.531056  -0.054329
      8      -0.016982   0.021657  -0.001891   0.003856  -0.191446   0.008346
      9       0.033275  -0.055378  -0.002565   0.000270   0.002385   0.001154
     10      -0.050325  -0.032905  -0.002038  -0.000372  -0.000842   0.007811
     11       0.015785   0.010098  -0.002263   0.000136   0.000790  -0.001558
     12       0.226770   0.300826   0.001612  -0.002411  -0.040011   0.013256
     13       0.231436   0.584527   0.001608   0.000468   0.024770  -0.002285
     14       0.279322  -0.213676   0.009200  -0.000576   0.010761  -0.004635
     15      -0.379802   0.622595  -0.005644   0.000013   0.003762  -0.008061
     16      -0.145068  -0.135360   0.001763   0.003610   0.008628  -0.100777
     17      -0.334625  -0.149759   0.004126   0.000554  -0.005784   0.048957
     18      -0.317189  -0.158209   0.001265   0.000459  -0.007197  -0.018180
     19       0.639671   0.017417   0.004440  -0.000372  -0.007342  -0.006151
     20      -0.152962   0.244678  -0.010109   0.000479  -0.003871  -0.009828
     21      -0.000961   0.001084   0.019152  -0.004099  -0.003830  -0.001615
     22       0.000118   0.000863   0.032101   0.007298  -0.000111  -0.002088
     23      -0.000320   0.001141   0.012639  -0.000934  -0.001030  -0.000708
     24       0.000718   0.000062  -0.574967  -0.061985   0.000515   0.000057
     25      -0.001311  -0.001159  -0.440698   0.027181   0.000854  -0.000010
     26       0.000175  -0.000792  -0.262693  -0.021580  -0.000035   0.000468
     27       0.008833   0.002951  -0.268877   0.843338   0.003096  -0.003198
     28       0.016077   0.007729   0.177606  -0.446281  -0.010668   0.004287
     29       0.006766   0.004881  -0.084556   0.290297   0.003516  -0.000859
     30      -0.001049  -0.000358   0.426611  -0.003246  -0.000071   0.000091
     31       0.000292   0.000182   0.272269   0.001115  -0.000112   0.000116
     32      -0.000459   0.000121   0.189973  -0.001215  -0.000066  -0.000027
                  30         31         32    
      0      -0.000103  -0.000787  -0.004899
      1       0.009558  -0.003519   0.002128
      2      -0.004764  -0.000091   0.001347
      3      -0.006238   0.001760  -0.000860
      4      -0.099752   0.024600   0.002534
      5       0.045074  -0.011488  -0.000890
      6       0.006929  -0.004985   0.037253
      7      -0.001497   0.002805  -0.025096
      8      -0.002399   0.001141  -0.007437
      9      -0.001414  -0.031092  -0.082045
     10       0.068957  -0.050110   0.017539
     11      -0.032340  -0.031706   0.004190
     12       0.054052  -0.335832   0.763090
     13       0.000009   0.176384  -0.488282
     14      -0.023317   0.058045  -0.171192
     15      -0.074806  -0.013318  -0.032694
     16      -0.892015  -0.004612   0.078869
     17       0.415455  -0.019054  -0.033160
     18       0.036904   0.728832   0.267747
     19       0.056802   0.438109   0.196755
     20       0.006776   0.351805   0.148338
     21       0.000080   0.000213   0.000120
     22       0.000094  -0.000047   0.000039
     23       0.000127  -0.000092  -0.000158
     24      -0.000219   0.000149  -0.000188
     25       0.000216   0.000189   0.000278
     26      -0.000253   0.000043   0.000077
     27       0.002824  -0.001156   0.001336
     28      -0.002614   0.000802  -0.002003
     29       0.001345  -0.000275   0.000337
     30      -0.000016  -0.000038   0.000030
     31      -0.000035  -0.000036  -0.000067
     32       0.000011  -0.000022  -0.000024


-----------
IR SPECTRUM  
-----------

 Mode    freq (cm**-1)   T**2         TX         TY         TZ
-------------------------------------------------------------------
   6:        70.96    0.000000  (  0.000000   0.000000   0.000000)
   7:       163.42    0.000000  (  0.000000   0.000000   0.000000)
   8:       195.46    0.000000  (  0.000000   0.000000   0.000000)
   9:       356.81    0.000000  (  0.000000   0.000000   0.000000)
  10:       403.78    0.000000  (  0.000000   0.000000   0.000000)
  11:       607.74    0.000000  (  0.000000   0.000000   0.000000)
  12:       822.18    0.000000  (  0.000000   0.000000   0.000000)
  13:       934.90    0.000000  (  0.000000   0.000000   0.000000)
  14:       956.65    0.000000  (  0.000000   0.000000   0.000000)
  15:      1056.90    0.000000  (  0.000000   0.000000   0.000000)
  16:      1091.35    0.000000  (  0.000000   0.000000   0.000000)
  17:      1130.49    0.000000  (  0.000000   0.000000   0.000000)
  18:      1196.71    0.000000  (  0.000000   0.000000   0.000000)
  19:      1264.37    0.000000  (  0.000000   0.000000   0.000000)
  20:      1324.78    0.000000  (  0.000000   0.000000   0.000000)
  21:      1399.25    0.000000  (  0.000000   0.000000   0.000000)
  22:      1403.96    0.000000  (  0.000000   0.000000   0.000000)
  23:      1454.40    0.000000  (  0.000000   0.000000   0.000000)
  24:      1476.34    0.000000  (  0.000000   0.000000   0.000000)
  25:      1489.87    0.000000  (  0.000000   0.000000   0.000000)
  26:      1808.57    0.000000  (  0.000000   0.000000   0.000000)
  27:      2692.19    0.000000  (  0.000000   0.000000   0.000000)
  28:      2906.61    0.000000  (  0.000000   0.000000   0.000000)
  29:      2978.77    0.000000  (  0.000000   0.000000   0.000000)
  30:      3040.35    0.000000  (  0.000000   0.000000   0.000000)
  31:      3055.02    0.000000  (  0.000000   0.000000   0.000000)
  32:      3057.58    0.000000  (  0.000000   0.000000   0.000000)

The first frequency considered to be a vibration is 6
The total number of vibrations considered is 27


--------------------------
THERMOCHEMISTRY AT 298.15K
--------------------------

Temperature         ... 298.15 K
Pressure            ... 1.00 atm
Total Mass          ... 74.08 AMU

Throughout the following assumptions are being made:
  (1) The electronic state is orbitally nondegenerate
  (2) There are no thermally accessible electronically excited states
  (3) Hindered rotations indicated by low frequency modes are not
      treated as such but are treated as vibrations and this may
      cause some error
  (4) All equations used are the standard statistical mechanics
      equations for an ideal gas
  (5) All vibrations are strictly harmonic

freq.      70.96  E(vib)   ...       0.50 
freq.     163.42  E(vib)   ...       0.39 
freq.     195.46  E(vib)   ...       0.36 
freq.     356.81  E(vib)   ...       0.22 
freq.     403.78  E(vib)   ...       0.19 
freq.     607.74  E(vib)   ...       0.10 
freq.     822.18  E(vib)   ...       0.05 
freq.     934.90  E(vib)   ...       0.03 
freq.     956.65  E(vib)   ...       0.03 
freq.    1056.90  E(vib)   ...       0.02 
freq.    1091.35  E(vib)   ...       0.02 
freq.    1130.49  E(vib)   ...       0.01 
freq.    1196.71  E(vib)   ...       0.01 
freq.    1264.37  E(vib)   ...       0.01 
freq.    1324.78  E(vib)   ...       0.01 
freq.    1399.25  E(vib)   ...       0.00 
freq.    1403.96  E(vib)   ...       0.00 
freq.    1454.40  E(vib)   ...       0.00 
freq.    1476.34  E(vib)   ...       0.00 
freq.    1489.87  E(vib)   ...       0.00 
freq.    1808.57  E(vib)   ...       0.00 
freq.    2692.19  E(vib)   ...       0.00 
freq.    2906.61  E(vib)   ...       0.00 
freq.    2978.77  E(vib)   ...       0.00 
freq.    3040.35  E(vib)   ...       0.00 
freq.    3055.02  E(vib)   ...       0.00 
freq.    3057.58  E(vib)   ...       0.00 

------------
INNER ENERGY
------------

The inner energy is: U= E(el) + E(ZPE) + E(vib) + E(rot) + E(trans)
    E(el)   - is the total energy from the electronic structure calculation
              = E(kin-el) + E(nuc-el) + E(el-el) + E(nuc-nuc)
    E(ZPE)  - the the zero temperature vibrational energy from the frequency calculation
    E(vib)  - the the finite temperature correction to E(ZPE) due to population
              of excited vibrational states
    E(rot)  - is the rotational thermal energy
    E(trans)- is the translational thermal energy

Summary of contributions to the inner energy U:
Electronic energy                ...    -17.60384203 Eh
Zero point energy                ...      0.08734354 Eh      54.81 kcal/mol
Thermal vibrational correction   ...      0.00310854 Eh       1.95 kcal/mol
Thermal rotational correction    ...      0.00141627 Eh       0.89 kcal/mol
Thermal translational correction ...      0.00141627 Eh       0.89 kcal/mol
-----------------------------------------------------------------------
Total thermal energy                    -17.51055741 Eh


Summary of corrections to the electronic energy:
(perhaps to be used in another calculation)
Total thermal correction                  0.00594108 Eh       3.73 kcal/mol
Non-thermal (ZPE) correction              0.08734354 Eh      54.81 kcal/mol
-----------------------------------------------------------------------
Total correction                          0.09328462 Eh      58.54 kcal/mol


--------
ENTHALPY
--------

The enthalpy is H = U + kB*T
                kB is Boltzmann's constant
Total free energy                 ...    -17.51055741 Eh 
Thermal Enthalpy correction       ...      0.00094421 Eh       0.59 kcal/mol
-----------------------------------------------------------------------
Total Enthalpy                    ...    -17.50961320 Eh


Note: Only C1 symmetry has been detected, increase convergence thresholds 
      if your molecule has a higher symmetry. Symmetry factor of 1.0 is   
      used for the rotational entropy correction. 
 

Note: Rotational entropy computed according to Herzberg 
Infrared and Raman Spectra, Chapter V,1, Van Nostrand Reinhold, 1945 
Point Group:  C1, Symmetry Number:   1  
Rotational constants in cm-1:     0.565288     0.090581     0.085652 

Vibrational entropy computed according to the QRRHO of S. Grimme
Chem.Eur.J. 2012 18 9955


-------
ENTROPY
-------

The entropy contributions are T*S = T*(S(el)+S(vib)+S(rot)+S(trans))
     S(el)   - electronic entropy
     S(vib)  - vibrational entropy
     S(rot)  - rotational entropy
     S(trans)- translational entropy
The entropies will be listed as mutliplied by the temperature to get
units of energy

Electronic entropy                ...      0.00000000 Eh      0.00 kcal/mol
Vibrational entropy               ...      0.00540395 Eh      3.39 kcal/mol
Rotational entropy                ...      0.01207397 Eh      7.58 kcal/mol
Translational entropy             ...      0.01844631 Eh     11.58 kcal/mol
-----------------------------------------------------------------------
Final entropy term                ...      0.03592423 Eh     22.54 kcal/mol

In case the symmetry of your molecule has not been determined correctly
or in case you have a reason to use a different symmetry number we print 
out the resulting rotational entropy values for sn=1,12 :
 --------------------------------------------------------
|  sn= 1 | S(rot)=       0.01207397 Eh      7.58 kcal/mol|
|  sn= 2 | S(rot)=       0.01141952 Eh      7.17 kcal/mol|
|  sn= 3 | S(rot)=       0.01103669 Eh      6.93 kcal/mol|
|  sn= 4 | S(rot)=       0.01076506 Eh      6.76 kcal/mol|
|  sn= 5 | S(rot)=       0.01055437 Eh      6.62 kcal/mol|
|  sn= 6 | S(rot)=       0.01038223 Eh      6.51 kcal/mol|
|  sn= 7 | S(rot)=       0.01023668 Eh      6.42 kcal/mol|
|  sn= 8 | S(rot)=       0.01011061 Eh      6.34 kcal/mol|
|  sn= 9 | S(rot)=       0.00999940 Eh      6.27 kcal/mol|
|  sn=10 | S(rot)=       0.00989992 Eh      6.21 kcal/mol|
|  sn=11 | S(rot)=       0.00980993 Eh      6.16 kcal/mol|
|  sn=12 | S(rot)=       0.00972777 Eh      6.10 kcal/mol|
 --------------------------------------------------------


-------------------
GIBBS FREE ENERGY
-------------------

The Gibbs free energy is G = H - T*S

Total enthalpy                    ...    -17.50961320 Eh 
Total entropy correction          ...     -0.03592423 Eh    -22.54 kcal/mol
-----------------------------------------------------------------------
Final Gibbs free energy         ...    -17.54553743 Eh

For completeness - the Gibbs free energy minus the electronic energy
G-E(el)                           ...      0.05830460 Eh     36.59 kcal/mol


Total Time for Numerical Frequencies  :        84.278 sec

Timings for individual modules:

Sum of individual times         ...        2.014 sec (=   0.034 min)
Geometry relaxation             ...        1.385 sec (=   0.023 min)  68.8 %
XTB module                      ...        0.629 sec (=   0.010 min)  31.2 %
                             ****ORCA TERMINATED NORMALLY****
TOTAL RUN TIME: 0 days 0 hours 1 minutes 27 seconds 597 msec
