
                                 *****************
                                 * O   R   C   A *
                                 *****************

           --- An Ab Initio, DFT and Semiempirical electronic structure package ---

                  #######################################################
                  #                        -***-                        #
                  #          Department of theory and spectroscopy      #
                  #               Directorship: Frank Neese             #
                  #        Max Planck Institute fuer Kohlenforschung    #
                  #                Kaiser Wilhelm Platz 1               #
                  #                 D-45470 Muelheim/Ruhr               #
                  #                      Germany                        #
                  #                                                     #
                  #                  All rights reserved                #
                  #                        -***-                        #
                  #######################################################


                         Program Version 4.2.1 -  RELEASE  -


 With contributions from (in alphabetic order):
   Daniel Aravena         : Magnetic Suceptibility
   Michael Atanasov       : Ab Initio Ligand Field Theory (pilot matlab implementation)
   Alexander A. Auer      : GIAO ZORA, VPT2
   Ute Becker             : Parallelization
   Giovanni Bistoni       : ED, misc. LED, open-shell LED, HFLD
   Martin Brehm           : Molecular dynamics
   Dmytro Bykov           : SCF Hessian
   Vijay G. Chilkuri      : MRCI spin determinant printing, contributions to CSF-ICE
   Dipayan Datta          : RHF DLPNO-CCSD density
   Achintya Kumar Dutta   : EOM-CC, STEOM-CC
   Dmitry Ganyushin       : Spin-Orbit,Spin-Spin,Magnetic field MRCI
   Miquel Garcia          : C-PCM Hessian, Gaussian charge scheme
   Yang Guo               : DLPNO-NEVPT2, CIM, IAO-localization
   Andreas Hansen         : Spin unrestricted coupled pair/coupled cluster methods
   Benjamin Helmich-Paris : CASSCF linear response (MC-RPA)
   Lee Huntington         : MR-EOM, pCC
   Robert Izsak           : Overlap fitted RIJCOSX, COSX-SCS-MP3, EOM
   Christian Kollmar      : KDIIS, OOCD, Brueckner-CCSD(T), CCSD density
   Simone Kossmann        : Meta GGA functionals, TD-DFT gradient, OOMP2, MP2 Hessian
   Martin Krupicka        : AUTO-CI
   Lucas Lang             : DCDCAS
   Dagmar Lenk            : GEPOL surface, SMD
   Dimitrios Liakos       : Extrapolation schemes; Compound Job, initial MDCI parallelization
   Dimitrios Manganas     : Further ROCIS development; embedding schemes
   Dimitrios Pantazis     : SARC Basis sets
   Taras Petrenko         : DFT Hessian,TD-DFT gradient, ASA, ECA, R-Raman, ABS, FL, XAS/XES, NRVS
   Peter Pinski           : DLPNO-MP2, DLPNO-MP2 Gradient
   Christoph Reimann      : Effective Core Potentials
   Marius Retegan         : Local ZFS, SOC
   Christoph Riplinger    : Optimizer, TS searches, QM/MM, DLPNO-CCSD(T), (RO)-DLPNO pert. Triples
   Tobias Risthaus        : Range-separated hybrids, TD-DFT gradient, RPA, STAB
   Michael Roemelt        : Original ROCIS implementation
   Masaaki Saitow         : Open-shell DLPNO-CCSD energy and density
   Barbara Sandhoefer     : DKH picture change effects
   Avijit Sen             : IP-ROCIS
   Kantharuban Sivalingam : CASSCF convergence, NEVPT2, FIC-MRCI
   Bernardo de Souza      : ESD, SOC TD-DFT
   Georgi Stoychev        : AutoAux, RI-MP2 NMR
   Willem Van den Heuvel  : Paramagnetic NMR
   Boris Wezisla          : Elementary symmetry handling
   Frank Wennmohs         : Technical directorship


 We gratefully acknowledge several colleagues who have allowed us to
 interface, adapt or use parts of their codes:
   Stefan Grimme, W. Hujo, H. Kruse,             : VdW corrections, initial TS optimization,
                  C. Bannwarth                     DFT functionals, gCP, sTDA/sTD-DF
   Ed Valeev, F. Pavosevic, A. Kumar             : LibInt (2-el integral package), F12 methods
   Garnet Chan, S. Sharma, J. Yang, R. Olivares  : DMRG
   Ulf Ekstrom                                   : XCFun DFT Library
   Mihaly Kallay                                 : mrcc  (arbitrary order and MRCC methods)
   Andreas Klamt, Michael Diedenhofen            : otool_cosmo (COSMO solvation model)
   Jiri Pittner, Ondrej Demel                    : Mk-CCSD
   Frank Weinhold                                : gennbo (NPA and NBO analysis)
   Christopher J. Cramer and Donald G. Truhlar   : smd solvation model
   Lars Goerigk                                  : TD-DFT with DH, B97 family of functionals
   V. Asgeirsson, H. Jonsson                     : NEB implementation
   FAccTs GmbH                                   : IRC, NEB, NEB-TS, Multilevel, MM, QM/MM, CI optimization
   S Lehtola, MJT Oliveira, MAL Marques          : LibXC Library


 Your calculation uses the libint2 library for the computation of 2-el integrals
 For citations please refer to: http://libint.valeyev.net

 Your ORCA version has been built with support for libXC version: 4.2.3
 For citations please refer to: https://tddft.org/programs/libxc/

 This ORCA versions uses:
   CBLAS   interface :  Fast vector & matrix operations
   LAPACKE interface :  Fast linear algebra routines
   SCALAPACK package :  Parallel linear algebra routines




***************************************
The coordinates will be read from file: nint2.xyz
***************************************


Your calculation utilizes the semiempirical GFN2-xTB method
Please cite in your paper:
C. Bannwarth, Ehlert S., S. Grimme,  J. Chem. Theory Comput., 15, (2019), 1652.
   

----- Orbital basis set information -----
Your calculation utilizes the basis: def2-SVP
   F. Weigend and R. Ahlrichs, Phys. Chem. Chem. Phys. 7, 3297 (2005).

================================================================================
                                        WARNINGS
                       Please study these warnings very carefully!
================================================================================


WARNING: Geometry Optimization
  ===> : Switching off AutoStart
         For restart on a previous wavefunction, please use MOREAD

WARNING: Found dipole moment calculation with XTB calculation
  ===> : Switching off dipole moment calculation


INFO   : the flag for use of LIBINT has been found!

================================================================================
                                       INPUT FILE
================================================================================
NAME = orca.inp
|  1> !XTB  TIGHTOPT
|  2> 
|  3> ! numfreq
|  4> 
|  5> *xyzfile 0 1 nint2.xyz
|  6> 
|  7>                          ****END OF INPUT****
================================================================================

                       *****************************
                       * Geometry Optimization Run *
                       *****************************

Geometry optimization settings:
Update method            Update   .... BFGS
Choice of coordinates    CoordSys .... Z-matrix Internals
Initial Hessian          InHess   .... Almoef's Model

Convergence Tolerances:
Energy Change            TolE     ....  1.0000e-06 Eh
Max. Gradient            TolMAXG  ....  1.0000e-04 Eh/bohr
RMS Gradient             TolRMSG  ....  3.0000e-05 Eh/bohr
Max. Displacement        TolMAXD  ....  1.0000e-03 bohr
RMS Displacement         TolRMSD  ....  6.0000e-04 bohr
Strict Convergence                ....  False
------------------------------------------------------------------------------
                        ORCA OPTIMIZATION COORDINATE SETUP
------------------------------------------------------------------------------

The optimization will be done in new redundant internal coordinates
Making redundant internal coordinates   ...  (new redundants) done
Evaluating the initial hessian          ...  (Almloef) done
Evaluating the coordinates              ...  done
Calculating the B-matrix                .... done
Calculating the G-matrix                .... done
Diagonalizing the G-matrix              .... done
The first mode is                       ....   58
The number of degrees of freedom        ....   27

    -----------------------------------------------------------------
                    Redundant Internal Coordinates


    -----------------------------------------------------------------
         Definition                    Initial Value    Approx d2E/dq
    -----------------------------------------------------------------
      1. B(H   1,C   0)                  1.0786         0.375439   
      2. B(H   2,H   1)                  2.4578         0.000453   
      3. B(H   2,C   0)                  2.0644         0.010040   
      4. B(C   3,H   2)                  2.4221         0.002698   
      5. B(C   3,C   0)                  1.3210         0.805046   
      6. B(H   4,C   3)                  1.0782         0.376111   
      7. B(H   5,H   2)                  2.2655         0.000918   
      8. B(H   5,C   0)                  1.0789         0.375049   
      9. B(H   6,C   3)                  1.0783         0.375980   
     10. B(O   7,H   2)                  0.9779         0.486824   
     11. B(C   8,O   7)                  1.3276         0.703808   
     12. B(H   9,C   8)                  1.1131         0.330817   
     13. B(O  10,C   8)                  1.1885         1.173105   
     14. A(H   1,C   0,C   3)          121.9157         0.371636   
     15. A(H   1,C   0,H   5)          116.0035         0.294639   
     16. A(C   3,C   0,H   5)          122.0153         0.371570   
     17. A(H   2,C   0,H   5)           86.2232         0.179599   
     18. A(H   2,C   0,C   3)           88.5258         0.213522   
     19. A(H   1,C   0,H   2)           97.9447         0.179620   
     20. A(C   0,H   1,H   2)           56.2925         0.124937   
     21. A(C   0,H   2,O   7)          173.7292         0.183989   
     22. A(C   0,H   2,H   5)           28.3726         0.107579   
     23. A(H   5,H   2,O   7)          155.3025         0.133202   
     24. A(C   0,H   2,C   3)           33.0390         0.118654   
     25. A(C   3,H   2,O   7)          148.2853         0.159553   
     26. A(C   3,H   2,H   5)           53.1686         0.102799   
     27. A(H   1,H   2,H   5)           45.3569         0.096368   
     28. A(C   0,H   2,H   1)           25.7628         0.104833   
     29. A(H   1,H   2,O   7)          148.1428         0.126670   
     30. A(H   1,H   2,C   3)           51.0024         0.100760   
     31. A(H   4,C   3,H   6)          115.9645         0.294837   
     32. A(H   2,C   3,H   6)          111.9074         0.156330   
     33. A(C   0,C   3,H   6)          121.9783         0.371728   
     34. A(H   2,C   3,H   4)          100.9451         0.156335   
     35. A(C   0,C   3,H   2)           58.4352         0.181489   
     36. A(C   0,C   3,H   4)          122.0545         0.371751   
     37. A(C   0,H   5,H   2)           65.4042         0.131159   
     38. A(H   2,O   7,C   8)          113.1064         0.374021   
     39. A(H   9,C   8,O  10)          122.5811         0.385628   
     40. A(O   7,C   8,O  10)          124.0667         0.492526   
     41. A(O   7,C   8,H   9)          113.3522         0.353235   
     42. D(H   2,H   1,C   0,C   3)     93.2285         0.134491   
     43. D(H   2,H   1,C   0,H   5)    -89.6607         0.134491   
     44. D(C   3,H   2,C   0,H   1)    122.0311         0.001562   
     45. D(H   1,H   2,C   0,C   3)   -122.0311         0.001562   
     46. D(H   5,H   2,C   0,H   1)   -115.7487         0.001562   
     47. D(C   3,H   2,C   0,H   5)   -122.2202         0.001562   
     48. D(H   1,H   2,C   0,H   5)    115.7487         0.001562   
     49. D(O   7,H   2,C   0,C   3)   -106.9814         0.001562   
     50. D(C   3,H   2,H   1,C   0)    -36.4934         0.001502   
     51. D(O   7,H   2,H   1,C   0)   -176.9197         0.001502   
     52. D(O   7,H   2,C   0,H   1)     15.0497         0.001562   
     53. D(O   7,H   2,C   0,H   5)    130.7985         0.001562   
     54. D(H   5,H   2,H   1,C   0)     36.9828         0.001502   
     55. D(H   5,H   2,C   0,C   3)    122.2202         0.001562   
     56. D(H   4,C   3,C   0,H   1)    178.5502         0.054985   
     57. D(H   4,C   3,H   2,H   5)     90.8877         0.001505   
     58. D(H   4,C   3,H   2,H   1)    149.3408         0.001505   
     59. D(H   4,C   3,H   2,O   7)    -70.4236         0.001505   
     60. D(C   0,C   3,H   2,H   5)    -30.1508         0.001505   
     61. D(C   0,C   3,H   2,H   1)     28.3023         0.001505   
     62. D(C   0,C   3,H   2,O   7)    168.5379         0.001505   
     63. D(H   2,C   3,C   0,H   5)     84.6177         0.054985   
     64. D(H   2,C   3,C   0,H   1)    -98.4449         0.054985   
     65. D(H   6,C   3,C   0,H   2)     97.6235         0.054985   
     66. D(H   6,C   3,C   0,H   1)     -0.8214         0.054985   
     67. D(H   4,C   3,H   2,C   0)    121.0385         0.001505   
     68. D(H   6,C   3,C   0,H   5)   -177.7588         0.054985   
     69. D(H   4,C   3,C   0,H   2)    -83.0048         0.054985   
     70. D(H   6,C   3,H   2,O   7)     53.5217         0.001505   
     71. D(H   6,C   3,H   2,C   0)   -115.0161         0.001505   
     72. D(H   6,C   3,H   2,H   5)   -145.1670         0.001505   
     73. D(H   6,C   3,H   2,H   1)    -86.7138         0.001505   
     74. D(H   4,C   3,C   0,H   5)      1.6129         0.054985   
     75. D(C   0,H   5,H   2,C   3)     35.1888         0.001509   
     76. D(C   0,H   5,H   2,H   1)    -33.3830         0.001509   
     77. D(C   0,H   5,H   2,O   7)   -168.5861         0.001509   
     78. D(H   2,H   5,C   0,C   3)    -85.8895         0.134149   
     79. D(H   2,H   5,C   0,H   1)     97.0028         0.134149   
     80. D(C   8,O   7,H   2,H   5)   -167.6787         0.353205   
     81. D(C   8,O   7,H   2,C   3)    -25.5448         0.353205   
     82. D(C   8,O   7,H   2,H   1)     84.0931         0.353205   
     83. D(C   8,O   7,H   2,C   0)     71.7464         0.353205   
     84. D(O  10,C   8,O   7,H   2)   -179.5681         0.037134   
     85. D(H   9,C   8,O   7,H   2)      0.5055         0.037134   
    -----------------------------------------------------------------

Number of atoms                         .... 11
Number of degrees of freedom            .... 85

         *************************************************************
         *                GEOMETRY OPTIMIZATION CYCLE   1            *
         *************************************************************
      -----------------------------------------------------------      
     |                   =====================                   |     
     |                           x T B                           |     
     |                   =====================                   |     
     |                         S. Grimme                         |     
     |          Mulliken Center for Theoretical Chemistry        |     
     |                    University of Bonn                     |     
     |                 Version 6.0.1 (SAW181210)                 |     
      -----------------------------------------------------------      

   This program is distributed in the hope that it will be useful,
   but WITHOUT ANY WARRANTY; without even the implied warranty of
   MERCHANTABILITY or FITNESS FOR A PARTICULAR PURPOSE.
   
   FOR NON-COMMERCIAL, ACADEMIA USE ONLY.
   
   Cite this work as:
   S. Grimme, C. Bannwarth, P. Shushkov, J. Comput. Theory Chem., 2017,
   13, 1989-2009.
   C. Bannwarth, S. Ehlert and S. Grimme., ChemRxiv, 2018, preprint.
   http://doi.org/10.26434/chemrxiv.7246238.v1
   
   for sTDA-xTB:
   S. Grimme and C. Bannwarth, J. Chem. Phys., 2016, 145, 054103.
   
   in the mass-spec context:
   V. Asgeirsson, C. Bauer and S. Grimme, Chem. Sci., 2017, 8, 4879.
   
   if GBSA is used:
   P. Shushkov, F. März and S. Grimme, unpublished.
   
   for ANC optimizer:
   S. Grimme, unpublished.
   Rational Function algorithm used in ANCopt:
   F. Eckert, P. Pulay, H.-J. Werner, J. Comput. Chem., 1997, 18, 1473.
   
   with help from (in alphabetical order)
   C. Bannwarth, F. Bohle, G. Brandenburg, E. Caldeweyher, M. Checinski,
   S. Dohm, S. Ehlert, S. Ehrlich, F. März, H. Neugebauer, J. Pisarek,
   P. Pracht, P. Shushkov, and S. Spicher.
   
 * started run on 2020/12/16 at 16:57:57.827     
========================================================================
 # omp threads = 1
========================================================================
calculation namespace      : orca
number of atoms            : 11
number of electrons        : 30
charge                     : 0
spin                       : .0
first test random number   : .0820

########################################################################
# WARNING! Please study the warnings concerning your input carefully
#  - XTBHOME is not set, using HOME instead
#  - XTBPATH is not set, using XTBHOME instead
########################################################################

           ------------------------------------------------- 
          |                 G F N 2 - x T B                 |
          | Geometry, Frequencies, Noncovalent interactions |
          |            JCTC 2018 parametrisation            |
           ------------------------------------------------- 
      method parameters     
 k(s)        :  1.8500
 k(p)        :  2.2300
 k(d)        :  2.2300
 k(f)        :  2.0000
 kEN (H0ij)  : -2.0000
 D4 a1       :  0.5200
 D4 a2       :  5.0000
 D4 s6       :  1.0000
 D4 s8       :  2.7000
 D4 s9       :  5.0000
 alphaj      :  2.0000


            Z     q(EN)     CN     RAES       Cart. coordinates
     1  C   4.0   -0.08    3.04    3.02     0.92921     1.72446    -1.91167
     2  H   1.0    0.07    1.00    1.43     2.77266     1.57458    -2.76845
     3  H   1.0    0.12    1.07    1.44    -0.86934    -1.02298    -4.01796
     4  C   4.0   -0.07    3.01    3.02     0.32366     0.45064     0.14803
     5  H   1.0    0.07    1.00    1.43    -1.50292     0.63019     1.03260
     6  H   1.0    0.07    1.00    1.43    -0.35714     3.04432    -2.78363
     7  H   1.0    0.06    1.00    1.43     1.63410    -0.81778     1.05671
     8  O   6.0   -0.22    2.04    1.83    -1.53718    -2.38638    -5.07166
     9  C   4.0    0.19    2.99    3.02    -1.15470    -4.66453    -4.09306
    10  H   1.0    0.05    0.99    1.43    -0.15817    -4.61991    -2.24120
    11  O   6.0   -0.25    1.10    1.80    -1.80262    -6.57927    -5.07199

  Z AO/shell   Hii/eV     exponent
  1     Wed Apr 25 08:07:45 CEST 2018   EN: 2.200 GM2: 0.406  GM3: 0.0800  RAES: 1.40
     1s    -10.707211    1.230000
  6     Wed Apr 25 08:07:45 CEST 2018   EN: 2.550 GM2: 0.538  GM3: 0.1500  RAES: 3.00
     2s    -13.970922    2.096432
     2p    -10.063292    1.800000
  8     Wed Apr 25 08:07:45 CEST 2018   EN: 3.440 GM2: 0.452  GM3:-0.0517  RAES: 1.80
     2s    -20.229985    2.439742
     2p    -15.503117    2.137023
 no old-style atom pair restraining (fixing) potential

molecular fragmentation (1/2 indicates fragments):
11211112222
# atoms in fragment 1/2:     6     5
 fragment masses (1/2) :       28.05       46.03
CMA distance (Bohr)    :   7.077
constraining FC (au)   :  0.0500
           ------------------------------------------------- 
          |        Self-Consistent Charge Iterations        |
           ------------------------------------------------- 

 Ncao       : 26
 Nao        : 26
 Nshell     : 16
 Nel        : 30
 T(el)      :   300.0
 intcut     :    25.0
 scfconv/Eh :  0.100E-05
   qconv/e  :  0.100E-03
 intneglect :  0.100E-07
 broydamp   :      0.250
 iter      E             dE          RMSdq      gap      omega  full diag
   1    -17.6956194 -0.176956E+02  0.553E+00    5.34       0.0  T
   2    -17.7539181 -0.582987E-01  0.354E+00    5.14       1.0  T
   3    -17.7575162 -0.359809E-02  0.158E+00    4.86       1.0  T
   4    -17.7590990 -0.158288E-02  0.355E-01    4.90       1.0  T
   5    -17.7594992 -0.400147E-03  0.194E-01    4.89       1.0  T
   6    -17.7596632 -0.164066E-03  0.550E-02    4.97       1.0  T
   7    -17.7596670 -0.378837E-05  0.315E-02    4.98       1.0  T
   8    -17.7596690 -0.192850E-05  0.202E-02    4.98       1.5  T
   9    -17.7596706 -0.165620E-05  0.690E-03    4.97       4.4  T
  10    -17.7596709 -0.318336E-06  0.207E-03    4.97      14.5  T
  11    -17.7596710 -0.120895E-07  0.598E-04    4.97      50.4  T
  12    -17.7596710 -0.323944E-09  0.371E-04    4.97      81.4  T
speedup  0.08
cpu  time for SCC    0.01 s
wall time for SCC    0.07 s

   *** convergence criteria satisfied after 12 iterations ***

          eigenvalues
 #    :           3          4          5          6          7          8          9         10
 occ. :        2.000      2.000      2.000      2.000      2.000      2.000      2.000      2.000
 eps  :       -17.846    -17.570    -17.132    -15.935    -15.855    -15.287    -14.684    -14.178
 #    :          11         12         13         14         15         16         17         18
 occ. :        2.000      2.000      2.000      2.000      2.000      0.000      0.000      0.000
 eps  :       -13.743    -13.222    -12.604    -12.320    -11.695     -6.723     -6.673      1.879
 #    :          19         20         21         22         23         24         25         26
 occ. :        0.000      0.000      0.000      0.000      0.000      0.000      0.000      0.000
 eps  :         2.856      3.218      3.509      4.783      8.554     11.004     15.169     17.451


   #   Z            q   n(s)   n(p)   n(d)      C6AA      α(0)
   1   6 C     -0.091  1.087  3.004  0.000    30.273     9.016
   2   1 H      0.050  0.950  0.000  0.000     2.315     2.379
   3   1 H      0.325  0.675  0.000  0.000     0.651     1.267
   4   6 C     -0.078  1.090  2.988  0.000    29.938     8.966
   5   1 H      0.051  0.949  0.000  0.000     2.307     2.375
   6   1 H      0.051  0.949  0.000  0.000     2.311     2.377
   7   1 H      0.050  0.950  0.000  0.000     2.322     2.383
   8   8 O     -0.359  1.689  4.669  0.000    20.063     6.047
   9   6 C      0.345  1.017  2.638  0.000    21.155     7.523
  10   1 H     -0.008  1.008  0.000  0.000     3.200     2.798
  11   8 O     -0.336  1.720  4.616  0.000    20.446     6.062

 Mol. C6AA /au·bohr⁶  :       1098.441262
 Mol. C8AA /au·bohr⁸  :      23676.449615
 Mol. α(0) /au        :         51.194060

 
 Wiberg/Mayer (AO) data. WBOs > 0.1 written file <wbo>
 largest (>0.05) Wiberg bond orders for each atom
           total WBO             WBO to atom ...
     1  C   3.992    C    4 2.003    H    2 0.976    H    6 0.973
     2  H   0.997    C    1 0.976
     3  H   0.894    O    8 0.832
     4  C   3.990    C    1 2.003    H    5 0.976    H    7 0.976
     5  H   0.997    C    4 0.976
     6  H   0.997    C    1 0.973
     7  H   0.998    C    4 0.976
     8  O   2.231    C    9 1.166    H    3 0.832    O   11 0.186
     9  C   3.926    O   11 1.840    O    8 1.166    H   10 0.917
    10  H   1.000    C    9 0.917    O   11 0.057
    11  O   2.099    C    9 1.840    O    8 0.186    H   10 0.057
 MOs/occ written to file <molden.input>
 
molecular dipole:
                 x           y           z       tot (Debye)
 q only:        0.494       1.197       0.812
   full:        0.672       1.450       1.114       4.952
molecular quadrupole (traceless):
                xx          xy          yy          xz          yz          zz
 q only:        6.767      -4.904      -5.053      -4.918     -12.130      -1.715
  q+dip:        9.655      -6.968      -7.199      -6.975     -16.246      -2.456
   full:        9.726      -6.694      -6.852      -7.166     -15.611      -2.874
speedup  0.14
cpu  time for grad    0.01 s
wall time for grad    0.08 s

SCC energy    :     -17.7596710
rep           :       0.2110603
ES            :       0.0440461
AES           :       0.0035237
AXC           :       0.0059038
disp          :      -0.0045516
XB            :       0.0000000
fix           :       0.0000000
grad norm     :       0.0003988
total E       :     -17.5486053
atomizationE  :       2.7874847     1749.17
(atE without considering molecular charge,
 total energy contains solvation terms)
H-L gap (eV)  :          4.9720

------------------------------------------------------------------------
 * finished run on 2020/12/16 at 16:57:58.055     
------------------------------------------------------------------------
 total:
 * wall-time:     0 d,  0 h,  0 min,  0.227 sec
 *  cpu-time:     0 d,  0 h,  0 min,  0.026 sec
 * ratio c/w:     0.115 speedup
 SCF:
 * wall-time:     0 d,  0 h,  0 min,  0.076 sec
 *  cpu-time:     0 d,  0 h,  0 min,  0.012 sec
 * ratio c/w:     0.159 speedup


-------------------------   --------------------
FINAL SINGLE POINT ENERGY       -17.548605321990
-------------------------   --------------------

------------------------------------------------------------------------------
                         ORCA GEOMETRY RELAXATION STEP
------------------------------------------------------------------------------

Reading the OPT-File                    .... done
Getting information on internals        .... done
Copying old internal coords+grads       .... done
Making the new internal coordinates     .... (new redundants).... done
Validating the new internal coordinates .... (new redundants).... done
Calculating the B-matrix                .... done
Calculating the G,G- and P matrices     .... done
Transforming gradient to internals      .... done
Projecting the internal gradient        .... done
Number of atoms                         ....  11
Number of internal coordinates          ....  85
Current Energy                          ....   -17.548605322 Eh
Current gradient norm                   ....     0.000398806 Eh/bohr
Maximum allowed component of the step   ....  0.300
Current trust radius                    ....  0.300
Evaluating the initial hessian          ....  (Almloef) done
Projecting the Hessian                  .... done
Forming the augmented Hessian           .... done
Diagonalizing the augmented Hessian     .... done
Last element of RFO vector              ....  0.999994084
Lowest eigenvalues of augmented Hessian:
 -0.000000641  0.010106542  0.037133542  0.037134224  0.041405164
Length of the computed step             ....  0.003439867
The final length of the internal step   ....  0.003439867
Converting the step to cartesian space:
 Initial RMS(Int)=    0.0003731060
Transforming coordinates:
 Iter   0:  RMS(Cart)=    0.0008827246 RMS(Int)=    0.0003731391
 Iter   1:  RMS(Cart)=    0.0000011969 RMS(Int)=    0.0000008584
 Iter   2:  RMS(Cart)=    0.0000000019 RMS(Int)=    0.0000000007
done
Storing new coordinates                 .... done

                                .--------------------.
          ----------------------|Geometry convergence|-------------------------
          Item                value                   Tolerance       Converged
          ---------------------------------------------------------------------
          RMS gradient        0.0000306948            0.0000300000      NO
          MAX gradient        0.0001229701            0.0001000000      NO
          RMS step            0.0003731060            0.0006000000      YES
          MAX step            0.0022879710            0.0010000000      NO
          ........................................................
          Max(Bonds)      0.0001      Max(Angles)    0.01
          Max(Dihed)        0.13      Max(Improp)    0.00
          ---------------------------------------------------------------------

The optimization has not yet converged - more geometry cycles are needed


    ---------------------------------------------------------------------------
                         Redundant Internal Coordinates
                            (Angstroem and degrees)

        Definition                    Value    dE/dq     Step     New-Value
    ----------------------------------------------------------------------------
     1. B(H   1,C   0)                1.0786 -0.000017  0.0000    1.0787   
     2. B(H   2,H   1)                2.4578 -0.000001 -0.0000    2.4578   
     3. B(H   2,C   0)                2.0644  0.000002  0.0000    2.0645   
     4. B(C   3,H   2)                2.4221  0.000010 -0.0000    2.4221   
     5. B(C   3,C   0)                1.3210  0.000019 -0.0000    1.3210   
     6. B(H   4,C   3)                1.0782  0.000029 -0.0000    1.0781   
     7. B(H   5,H   2)                2.2655 -0.000018  0.0001    2.2657   
     8. B(H   5,C   0)                1.0789 -0.000046  0.0001    1.0790   
     9. B(H   6,C   3)                1.0783  0.000004 -0.0000    1.0782   
    10. B(O   7,H   2)                0.9779  0.000011 -0.0000    0.9779   
    11. B(C   8,O   7)                1.3276 -0.000069  0.0001    1.3276   
    12. B(H   9,C   8)                1.1131 -0.000009  0.0000    1.1131   
    13. B(O  10,C   8)                1.1885 -0.000009  0.0000    1.1885   
    14. A(H   1,C   0,C   3)          121.92  0.000015   -0.01    121.91   
    15. A(H   1,C   0,H   5)          116.00 -0.000002    0.00    116.00   
    16. A(C   3,C   0,H   5)          122.02 -0.000013    0.01    122.02   
    17. A(H   2,C   0,H   5)           86.22 -0.000000    0.00     86.23   
    18. A(H   2,C   0,C   3)           88.53 -0.000001   -0.00     88.52   
    19. A(H   1,C   0,H   2)           97.94  0.000004   -0.00     97.94   
    20. A(C   0,H   1,H   2)           56.29  0.000000    0.00     56.30   
    21. A(C   0,H   2,O   7)          173.73  0.000004   -0.00    173.73   
    22. A(C   0,H   2,H   5)           28.37 -0.000010    0.00     28.37   
    23. A(H   5,H   2,O   7)          155.30  0.000005    0.00    155.30   
    24. A(C   0,H   2,C   3)           33.04  0.000004   -0.00     33.04   
    25. A(C   3,H   2,O   7)          148.29  0.000000   -0.00    148.28   
    26. A(C   3,H   2,H   5)           53.17 -0.000008    0.00     53.17   
    27. A(H   1,H   2,H   5)           45.36 -0.000012    0.00     45.36   
    28. A(C   0,H   2,H   1)           25.76 -0.000004    0.00     25.76   
    29. A(H   1,H   2,O   7)          148.14  0.000007   -0.00    148.14   
    30. A(H   1,H   2,C   3)           51.00  0.000004   -0.00     51.00   
    31. A(H   4,C   3,H   6)          115.96 -0.000028    0.01    115.98   
    32. A(H   2,C   3,H   6)          111.91 -0.000013    0.01    111.92   
    33. A(C   0,C   3,H   6)          121.98  0.000004   -0.00    121.98   
    34. A(H   2,C   3,H   4)          100.95  0.000016   -0.00    100.94   
    35. A(C   0,C   3,H   2)           58.44 -0.000003    0.00     58.44   
    36. A(C   0,C   3,H   4)          122.05  0.000024   -0.01    122.05   
    37. A(C   0,H   5,H   2)           65.40  0.000010   -0.01     65.40   
    38. A(H   2,O   7,C   8)          113.11 -0.000056    0.01    113.11   
    39. A(H   9,C   8,O  10)          122.58  0.000046   -0.01    122.57   
    40. A(O   7,C   8,O  10)          124.07 -0.000021    0.00    124.07   
    41. A(O   7,C   8,H   9)          113.35 -0.000025    0.00    113.36   
    42. D(H   2,H   1,C   0,C   3)     93.23  0.000004   -0.01     93.22   
    43. D(H   2,H   1,C   0,H   5)    -89.66 -0.000001   -0.00    -89.66   
    44. D(C   3,H   2,C   0,H   1)    122.03  0.000015   -0.01    122.02   
    45. D(H   1,H   2,C   0,C   3)   -122.03 -0.000015    0.01   -122.02   
    46. D(H   5,H   2,C   0,H   1)   -115.75  0.000002   -0.00   -115.75   
    47. D(C   3,H   2,C   0,H   5)   -122.22  0.000013   -0.01   -122.23   
    48. D(H   1,H   2,C   0,H   5)    115.75 -0.000002    0.00    115.75   
    49. D(O   7,H   2,C   0,C   3)   -106.98 -0.000040    0.03   -106.95   
    50. D(C   3,H   2,H   1,C   0)    -36.49  0.000005   -0.00    -36.50   
    51. D(O   7,H   2,H   1,C   0)   -176.92 -0.000006    0.01   -176.91   
    52. D(O   7,H   2,C   0,H   1)     15.05 -0.000025    0.02     15.07   
    53. D(O   7,H   2,C   0,H   5)    130.80 -0.000027    0.02    130.82   
    54. D(H   5,H   2,H   1,C   0)     36.98 -0.000004   -0.00     36.98   
    55. D(H   5,H   2,C   0,C   3)    122.22 -0.000013    0.01    122.23   
    56. D(H   4,C   3,C   0,H   1)    178.55 -0.000009    0.00    178.55   
    57. D(H   4,C   3,H   2,H   5)     90.89  0.000021   -0.01     90.88   
    58. D(H   4,C   3,H   2,H   1)    149.34  0.000007   -0.01    149.33   
    59. D(H   4,C   3,H   2,O   7)    -70.42  0.000028   -0.01    -70.44   
    60. D(C   0,C   3,H   2,H   5)    -30.15  0.000002    0.00    -30.15   
    61. D(C   0,C   3,H   2,H   1)     28.30 -0.000011    0.00     28.31   
    62. D(C   0,C   3,H   2,O   7)    168.54  0.000009   -0.00    168.53   
    63. D(H   2,C   3,C   0,H   5)     84.62  0.000000    0.00     84.62   
    64. D(H   2,C   3,C   0,H   1)    -98.44 -0.000005    0.01    -98.44   
    65. D(H   6,C   3,C   0,H   2)     97.62 -0.000021    0.02     97.64   
    66. D(H   6,C   3,C   0,H   1)     -0.82 -0.000026    0.03     -0.80   
    67. D(H   4,C   3,H   2,C   0)    121.04  0.000019   -0.01    121.03   
    68. D(H   6,C   3,C   0,H   5)   -177.76 -0.000020    0.02   -177.74   
    69. D(H   4,C   3,C   0,H   2)    -83.00 -0.000004   -0.01    -83.01   
    70. D(H   6,C   3,H   2,O   7)     53.52 -0.000002    0.01     53.53   
    71. D(H   6,C   3,H   2,C   0)   -115.02 -0.000011    0.01   -115.01   
    72. D(H   6,C   3,H   2,H   5)   -145.17 -0.000009    0.01   -145.16   
    73. D(H   6,C   3,H   2,H   1)    -86.71 -0.000022    0.01    -86.70   
    74. D(H   4,C   3,C   0,H   5)      1.61 -0.000004   -0.00      1.61   
    75. D(C   0,H   5,H   2,C   3)     35.19  0.000014   -0.00     35.19   
    76. D(C   0,H   5,H   2,H   1)    -33.38 -0.000003   -0.00    -33.38   
    77. D(C   0,H   5,H   2,O   7)   -168.59  0.000000    0.00   -168.59   
    78. D(H   2,H   5,C   0,C   3)    -85.89 -0.000000   -0.00    -85.89   
    79. D(H   2,H   5,C   0,H   1)     97.00  0.000004   -0.00     97.00   
    80. D(C   8,O   7,H   2,H   5)   -167.68 -0.000103    0.02   -167.66   
    81. D(C   8,O   7,H   2,C   3)    -25.54 -0.000123    0.03    -25.51   
    82. D(C   8,O   7,H   2,H   1)     84.09 -0.000095    0.02     84.11   
    83. D(C   8,O   7,H   2,C   0)     71.75 -0.000075   -0.00     71.74   
    84. D(O  10,C   8,O   7,H   2)   -179.57  0.000077   -0.12   -179.69   
    85. D(H   9,C   8,O   7,H   2)      0.51 -0.000085    0.13      0.64   
    ----------------------------------------------------------------------------

         *************************************************************
         *                GEOMETRY OPTIMIZATION CYCLE   2            *
         *************************************************************
      -----------------------------------------------------------      
     |                   =====================                   |     
     |                           x T B                           |     
     |                   =====================                   |     
     |                         S. Grimme                         |     
     |          Mulliken Center for Theoretical Chemistry        |     
     |                    University of Bonn                     |     
     |                 Version 6.0.1 (SAW181210)                 |     
      -----------------------------------------------------------      

   This program is distributed in the hope that it will be useful,
   but WITHOUT ANY WARRANTY; without even the implied warranty of
   MERCHANTABILITY or FITNESS FOR A PARTICULAR PURPOSE.
   
   FOR NON-COMMERCIAL, ACADEMIA USE ONLY.
   
   Cite this work as:
   S. Grimme, C. Bannwarth, P. Shushkov, J. Comput. Theory Chem., 2017,
   13, 1989-2009.
   C. Bannwarth, S. Ehlert and S. Grimme., ChemRxiv, 2018, preprint.
   http://doi.org/10.26434/chemrxiv.7246238.v1
   
   for sTDA-xTB:
   S. Grimme and C. Bannwarth, J. Chem. Phys., 2016, 145, 054103.
   
   in the mass-spec context:
   V. Asgeirsson, C. Bauer and S. Grimme, Chem. Sci., 2017, 8, 4879.
   
   if GBSA is used:
   P. Shushkov, F. März and S. Grimme, unpublished.
   
   for ANC optimizer:
   S. Grimme, unpublished.
   Rational Function algorithm used in ANCopt:
   F. Eckert, P. Pulay, H.-J. Werner, J. Comput. Chem., 1997, 18, 1473.
   
   with help from (in alphabetical order)
   C. Bannwarth, F. Bohle, G. Brandenburg, E. Caldeweyher, M. Checinski,
   S. Dohm, S. Ehlert, S. Ehrlich, F. März, H. Neugebauer, J. Pisarek,
   P. Pracht, P. Shushkov, and S. Spicher.
   
 * started run on 2020/12/16 at 16:57:58.166     
========================================================================
 # omp threads = 1
========================================================================
calculation namespace      : orca
number of atoms            : 11
number of electrons        : 30
charge                     : 0
spin                       : .0
first test random number   : .2676

########################################################################
# WARNING! Please study the warnings concerning your input carefully
#  - XTBHOME is not set, using HOME instead
#  - XTBPATH is not set, using XTBHOME instead
########################################################################

           ------------------------------------------------- 
          |                 G F N 2 - x T B                 |
          | Geometry, Frequencies, Noncovalent interactions |
          |            JCTC 2018 parametrisation            |
           ------------------------------------------------- 
      method parameters     
 k(s)        :  1.8500
 k(p)        :  2.2300
 k(d)        :  2.2300
 k(f)        :  2.0000
 kEN (H0ij)  : -2.0000
 D4 a1       :  0.5200
 D4 a2       :  5.0000
 D4 s6       :  1.0000
 D4 s8       :  2.7000
 D4 s9       :  5.0000
 alphaj      :  2.0000


            Z     q(EN)     CN     RAES       Cart. coordinates
     1  C   4.0   -0.08    3.04    3.02     0.92889     1.72485    -1.91152
     2  H   1.0    0.07    1.00    1.43     2.77244     1.57574    -2.76836
     3  H   1.0    0.12    1.07    1.44    -0.86853    -1.02295    -4.01842
     4  C   4.0   -0.07    3.01    3.02     0.32398     0.45022     0.14784
     5  H   1.0    0.07    1.00    1.43    -1.50262     0.62905     1.03234
     6  H   1.0    0.07    1.00    1.43    -0.35800     3.04458    -2.78324
     7  H   1.0    0.06    1.00    1.43     1.63528    -0.81737     1.05640
     8  O   6.0   -0.22    2.04    1.83    -1.53573    -2.38646    -5.07233
     9  C   4.0    0.19    2.99    3.02    -1.15318    -4.66479    -4.09391
    10  H   1.0    0.05    0.99    1.43    -0.16112    -4.62019    -2.23963
    11  O   6.0   -0.25    1.10    1.80    -1.80386    -6.57932    -5.07144

  Z AO/shell   Hii/eV     exponent
  1     Wed Apr 25 08:07:45 CEST 2018   EN: 2.200 GM2: 0.406  GM3: 0.0800  RAES: 1.40
     1s    -10.707211    1.230000
  6     Wed Apr 25 08:07:45 CEST 2018   EN: 2.550 GM2: 0.538  GM3: 0.1500  RAES: 3.00
     2s    -13.970922    2.096432
     2p    -10.063292    1.800000
  8     Wed Apr 25 08:07:45 CEST 2018   EN: 3.440 GM2: 0.452  GM3:-0.0517  RAES: 1.80
     2s    -20.229985    2.439742
     2p    -15.503117    2.137023
 no old-style atom pair restraining (fixing) potential

molecular fragmentation (1/2 indicates fragments):
11211112222
# atoms in fragment 1/2:     6     5
 fragment masses (1/2) :       28.05       46.03
CMA distance (Bohr)    :   7.077
constraining FC (au)   :  0.0500
           ------------------------------------------------- 
          |        Self-Consistent Charge Iterations        |
           ------------------------------------------------- 

 Ncao       : 26
 Nao        : 26
 Nshell     : 16
 Nel        : 30
 T(el)      :   300.0
 intcut     :    25.0
 scfconv/Eh :  0.100E-05
   qconv/e  :  0.100E-03
 intneglect :  0.100E-07
 broydamp   :      0.250
 iter      E             dE          RMSdq      gap      omega  full diag
   1    -17.6956061 -0.176956E+02  0.553E+00    5.34       0.0  T
   2    -17.7539064 -0.583003E-01  0.354E+00    5.14       1.0  T
   3    -17.7575039 -0.359745E-02  0.158E+00    4.86       1.0  T
   4    -17.7590870 -0.158310E-02  0.355E-01    4.90       1.0  T
   5    -17.7594867 -0.399676E-03  0.194E-01    4.89       1.0  T
   6    -17.7596510 -0.164310E-03  0.550E-02    4.97       1.0  T
   7    -17.7596548 -0.378663E-05  0.315E-02    4.98       1.0  T
   8    -17.7596567 -0.193511E-05  0.202E-02    4.98       1.5  T
   9    -17.7596583 -0.165548E-05  0.690E-03    4.97       4.4  T
  10    -17.7596587 -0.317940E-06  0.208E-03    4.97      14.5  T
  11    -17.7596587 -0.121266E-07  0.599E-04    4.97      50.4  T
  12    -17.7596587 -0.324071E-09  0.371E-04    4.97      81.4  T
speedup  0.96
cpu  time for SCC    0.00 s
wall time for SCC    0.00 s

   *** convergence criteria satisfied after 12 iterations ***

          eigenvalues
 #    :           3          4          5          6          7          8          9         10
 occ. :        2.000      2.000      2.000      2.000      2.000      2.000      2.000      2.000
 eps  :       -17.846    -17.570    -17.132    -15.934    -15.855    -15.287    -14.684    -14.178
 #    :          11         12         13         14         15         16         17         18
 occ. :        2.000      2.000      2.000      2.000      2.000      0.000      0.000      0.000
 eps  :       -13.743    -13.222    -12.604    -12.320    -11.695     -6.723     -6.673      1.879
 #    :          19         20         21         22         23         24         25         26
 occ. :        0.000      0.000      0.000      0.000      0.000      0.000      0.000      0.000
 eps  :         2.855      3.217      3.508      4.781      8.553     11.004     15.170     17.450


   #   Z            q   n(s)   n(p)   n(d)      C6AA      α(0)
   1   6 C     -0.091  1.087  3.004  0.000    30.273     9.016
   2   1 H      0.050  0.950  0.000  0.000     2.315     2.379
   3   1 H      0.325  0.675  0.000  0.000     0.651     1.267
   4   6 C     -0.078  1.090  2.988  0.000    29.938     8.966
   5   1 H      0.051  0.949  0.000  0.000     2.307     2.375
   6   1 H      0.051  0.949  0.000  0.000     2.311     2.377
   7   1 H      0.050  0.950  0.000  0.000     2.322     2.383
   8   8 O     -0.359  1.689  4.669  0.000    20.063     6.047
   9   6 C      0.345  1.017  2.638  0.000    21.155     7.523
  10   1 H     -0.008  1.008  0.000  0.000     3.200     2.797
  11   8 O     -0.336  1.720  4.616  0.000    20.445     6.062

 Mol. C6AA /au·bohr⁶  :       1098.438599
 Mol. C8AA /au·bohr⁸  :      23676.414761
 Mol. α(0) /au        :         51.193997

 
 Wiberg/Mayer (AO) data. WBOs > 0.1 written file <wbo>
 largest (>0.05) Wiberg bond orders for each atom
           total WBO             WBO to atom ...
     1  C   3.992    C    4 2.003    H    2 0.976    H    6 0.973
     2  H   0.997    C    1 0.976
     3  H   0.894    O    8 0.832
     4  C   3.990    C    1 2.003    H    5 0.976    H    7 0.976
     5  H   0.997    C    4 0.976
     6  H   0.997    C    1 0.973
     7  H   0.998    C    4 0.976
     8  O   2.231    C    9 1.166    H    3 0.832    O   11 0.186
     9  C   3.926    O   11 1.841    O    8 1.166    H   10 0.917
    10  H   1.000    C    9 0.917    O   11 0.057
    11  O   2.099    C    9 1.841    O    8 0.186    H   10 0.057
 MOs/occ written to file <molden.input>
 
molecular dipole:
                 x           y           z       tot (Debye)
 q only:        0.495       1.197       0.811
   full:        0.673       1.450       1.113       4.952
molecular quadrupole (traceless):
                xx          xy          yy          xz          yz          zz
 q only:        6.764      -4.910      -5.052      -4.921     -12.126      -1.712
  q+dip:        9.649      -6.977      -7.198      -6.980     -16.241      -2.450
   full:        9.721      -6.704      -6.851      -7.171     -15.605      -2.869
speedup  0.99
cpu  time for grad    0.01 s
wall time for grad    0.01 s

SCC energy    :     -17.7596587
rep           :       0.2110481
ES            :       0.0440451
AES           :       0.0035227
AXC           :       0.0059046
disp          :      -0.0045515
XB            :       0.0000000
fix           :       0.0000000
grad norm     :       0.0007025
total E       :     -17.5486052
atomizationE  :       2.7874847     1749.17
(atE without considering molecular charge,
 total energy contains solvation terms)
H-L gap (eV)  :          4.9722

------------------------------------------------------------------------
 * finished run on 2020/12/16 at 16:57:58.190     
------------------------------------------------------------------------
 total:
 * wall-time:     0 d,  0 h,  0 min,  0.023 sec
 *  cpu-time:     0 d,  0 h,  0 min,  0.017 sec
 * ratio c/w:     0.770 speedup
 SCF:
 * wall-time:     0 d,  0 h,  0 min,  0.010 sec
 *  cpu-time:     0 d,  0 h,  0 min,  0.010 sec
 * ratio c/w:     1.006 speedup


-------------------------   --------------------
FINAL SINGLE POINT ENERGY       -17.548605245310
-------------------------   --------------------

------------------------------------------------------------------------------
                         ORCA GEOMETRY RELAXATION STEP
------------------------------------------------------------------------------

Reading the OPT-File                    .... done
Getting information on internals        .... done
Copying old internal coords+grads       .... done
Making the new internal coordinates     .... (new redundants).... done
Validating the new internal coordinates .... (new redundants).... done
Calculating the B-matrix                .... done
Calculating the G,G- and P matrices     .... done
Transforming gradient to internals      .... done
Projecting the internal gradient        .... done
Number of atoms                         ....  11
Number of internal coordinates          ....  85
Current Energy                          ....   -17.548605245 Eh
Current gradient norm                   ....     0.000702461 Eh/bohr
Maximum allowed component of the step   ....  0.300
Current trust radius                    ....  0.300
Updating the Hessian (BFGS)             .... done
Forming the augmented Hessian           .... done
Diagonalizing the augmented Hessian     .... done
Last element of RFO vector              ....  0.999996922
Lowest eigenvalues of augmented Hessian:
 -0.000000885  0.010105566  0.036437359  0.041247622  0.045395986
Length of the computed step             ....  0.002481312
The final length of the internal step   ....  0.002481312
Converting the step to cartesian space:
 Initial RMS(Int)=    0.0002691360
Transforming coordinates:
 Iter   0:  RMS(Cart)=    0.0003646765 RMS(Int)=    0.0002691299
 Iter   1:  RMS(Cart)=    0.0000003705 RMS(Int)=    0.0000002051
 Iter   2:  RMS(Cart)=    0.0000000004 RMS(Int)=    0.0000000002
done
Storing new coordinates                 .... done

                                .--------------------.
          ----------------------|Geometry convergence|-------------------------
          Item                value                   Tolerance       Converged
          ---------------------------------------------------------------------
          Energy change       0.0000000767            0.0000010000      YES
          RMS gradient        0.0000434173            0.0000300000      NO
          MAX gradient        0.0002508904            0.0001000000      NO
          RMS step            0.0002691360            0.0006000000      YES
          MAX step            0.0015696741            0.0010000000      NO
          ........................................................
          Max(Bonds)      0.0001      Max(Angles)    0.01
          Max(Dihed)        0.09      Max(Improp)    0.00
          ---------------------------------------------------------------------

The optimization has not yet converged - more geometry cycles are needed


    ---------------------------------------------------------------------------
                         Redundant Internal Coordinates
                            (Angstroem and degrees)

        Definition                    Value    dE/dq     Step     New-Value
    ----------------------------------------------------------------------------
     1. B(H   1,C   0)                1.0787 -0.000004  0.0000    1.0787   
     2. B(H   2,H   1)                2.4578  0.000002 -0.0000    2.4578   
     3. B(H   2,C   0)                2.0645 -0.000000  0.0000    2.0645   
     4. B(C   3,H   2)                2.4221  0.000004 -0.0000    2.4221   
     5. B(C   3,C   0)                1.3210 -0.000001 -0.0000    1.3210   
     6. B(H   4,C   3)                1.0781  0.000002 -0.0000    1.0781   
     7. B(H   5,H   2)                2.2657 -0.000006  0.0001    2.2658   
     8. B(H   5,C   0)                1.0790 -0.000005  0.0001    1.0791   
     9. B(H   6,C   3)                1.0782  0.000005 -0.0000    1.0782   
    10. B(O   7,H   2)                0.9779  0.000007 -0.0000    0.9779   
    11. B(C   8,O   7)                1.3276 -0.000010  0.0000    1.3277   
    12. B(H   9,C   8)                1.1131 -0.000001  0.0000    1.1131   
    13. B(O  10,C   8)                1.1885  0.000002  0.0000    1.1885   
    14. A(H   1,C   0,C   3)          121.91  0.000011   -0.01    121.90   
    15. A(H   1,C   0,H   5)          116.00 -0.000002    0.00    116.00   
    16. A(C   3,C   0,H   5)          122.02 -0.000009    0.01    122.03   
    17. A(H   2,C   0,H   5)           86.23 -0.000002    0.00     86.23   
    18. A(H   2,C   0,C   3)           88.52  0.000002   -0.00     88.52   
    19. A(H   1,C   0,H   2)           97.94  0.000003   -0.00     97.94   
    20. A(C   0,H   1,H   2)           56.30 -0.000001    0.00     56.30   
    21. A(C   0,H   2,O   7)          173.73  0.000004   -0.00    173.72   
    22. A(C   0,H   2,H   5)           28.37 -0.000001    0.00     28.37   
    23. A(H   5,H   2,O   7)          155.30 -0.000004    0.00    155.31   
    24. A(C   0,H   2,C   3)           33.04 -0.000001    0.00     33.04   
    25. A(C   3,H   2,O   7)          148.28  0.000005   -0.00    148.28   
    26. A(C   3,H   2,H   5)           53.17 -0.000004    0.00     53.17   
    27. A(H   1,H   2,H   5)           45.36 -0.000002    0.00     45.36   
    28. A(C   0,H   2,H   1)           25.76 -0.000001    0.00     25.77   
    29. A(H   1,H   2,O   7)          148.14  0.000004   -0.00    148.14   
    30. A(H   1,H   2,C   3)           51.00  0.000001   -0.00     51.00   
    31. A(H   4,C   3,H   6)          115.98 -0.000019    0.01    115.99   
    32. A(H   2,C   3,H   6)          111.92 -0.000009    0.01    111.93   
    33. A(C   0,C   3,H   6)          121.98  0.000002   -0.00    121.97   
    34. A(H   2,C   3,H   4)          100.94  0.000011   -0.00    100.94   
    35. A(C   0,C   3,H   2)           58.44 -0.000001    0.00     58.44   
    36. A(C   0,C   3,H   4)          122.05  0.000017   -0.01    122.04   
    37. A(C   0,H   5,H   2)           65.40  0.000003   -0.00     65.39   
    38. A(H   2,O   7,C   8)          113.11 -0.000024    0.01    113.12   
    39. A(H   9,C   8,O  10)          122.57  0.000020   -0.01    122.57   
    40. A(O   7,C   8,O  10)          124.07 -0.000010    0.00    124.07   
    41. A(O   7,C   8,H   9)          113.36 -0.000012    0.00    113.36   
    42. D(H   2,H   1,C   0,C   3)     93.22  0.000006   -0.01     93.22   
    43. D(H   2,H   1,C   0,H   5)    -89.66  0.000001   -0.00    -89.67   
    44. D(C   3,H   2,C   0,H   1)    122.02  0.000012   -0.01    122.02   
    45. D(H   1,H   2,C   0,C   3)   -122.02 -0.000012    0.01   -122.02   
    46. D(H   5,H   2,C   0,H   1)   -115.75  0.000002   -0.00   -115.75   
    47. D(C   3,H   2,C   0,H   5)   -122.23  0.000009   -0.01   -122.23   
    48. D(H   1,H   2,C   0,H   5)    115.75 -0.000002    0.00    115.75   
    49. D(O   7,H   2,C   0,C   3)   -106.95 -0.000039    0.03   -106.92   
    50. D(C   3,H   2,H   1,C   0)    -36.50  0.000007   -0.00    -36.50   
    51. D(O   7,H   2,H   1,C   0)   -176.91 -0.000007    0.01   -176.91   
    52. D(O   7,H   2,C   0,H   1)     15.07 -0.000027    0.03     15.10   
    53. D(O   7,H   2,C   0,H   5)    130.82 -0.000029    0.03    130.85   
    54. D(H   5,H   2,H   1,C   0)     36.98  0.000002   -0.00     36.98   
    55. D(H   5,H   2,C   0,C   3)    122.23 -0.000009    0.01    122.23   
    56. D(H   4,C   3,C   0,H   1)    178.55 -0.000008    0.00    178.55   
    57. D(H   4,C   3,H   2,H   5)     90.88  0.000009   -0.01     90.87   
    58. D(H   4,C   3,H   2,H   1)    149.33  0.000007   -0.01    149.33   
    59. D(H   4,C   3,H   2,O   7)    -70.44  0.000021   -0.02    -70.45   
    60. D(C   0,C   3,H   2,H   5)    -30.15 -0.000004    0.00    -30.15   
    61. D(C   0,C   3,H   2,H   1)     28.31 -0.000006    0.00     28.31   
    62. D(C   0,C   3,H   2,O   7)    168.53  0.000008   -0.01    168.53   
    63. D(H   2,C   3,C   0,H   5)     84.62 -0.000000    0.00     84.62   
    64. D(H   2,C   3,C   0,H   1)    -98.44 -0.000005    0.01    -98.43   
    65. D(H   6,C   3,C   0,H   2)     97.64 -0.000013    0.02     97.66   
    66. D(H   6,C   3,C   0,H   1)     -0.80 -0.000019    0.03     -0.77   
    67. D(H   4,C   3,H   2,C   0)    121.03  0.000013   -0.01    121.02   
    68. D(H   6,C   3,C   0,H   5)   -177.74 -0.000014    0.02   -177.71   
    69. D(H   4,C   3,C   0,H   2)    -83.01 -0.000003   -0.01    -83.02   
    70. D(H   6,C   3,H   2,O   7)     53.53  0.000001    0.00     53.53   
    71. D(H   6,C   3,H   2,C   0)   -115.01 -0.000007    0.01   -115.00   
    72. D(H   6,C   3,H   2,H   5)   -145.16 -0.000011    0.01   -145.14   
    73. D(H   6,C   3,H   2,H   1)    -86.70 -0.000013    0.01    -86.69   
    74. D(H   4,C   3,C   0,H   5)      1.61 -0.000003   -0.00      1.61   
    75. D(C   0,H   5,H   2,C   3)     35.19  0.000005   -0.00     35.18   
    76. D(C   0,H   5,H   2,H   1)    -33.38 -0.000000   -0.00    -33.38   
    77. D(C   0,H   5,H   2,O   7)   -168.59 -0.000003    0.00   -168.58   
    78. D(H   2,H   5,C   0,C   3)    -85.89 -0.000002    0.00    -85.89   
    79. D(H   2,H   5,C   0,H   1)     97.00  0.000002   -0.00     97.00   
    80. D(C   8,O   7,H   2,H   5)   -167.66 -0.000102    0.02   -167.64   
    81. D(C   8,O   7,H   2,C   3)    -25.51 -0.000121    0.03    -25.48   
    82. D(C   8,O   7,H   2,H   1)     84.11 -0.000097    0.02     84.13   
    83. D(C   8,O   7,H   2,C   0)     71.74 -0.000076   -0.00     71.74   
    84. D(O  10,C   8,O   7,H   2)   -179.69 -0.000251    0.09   -179.60   
    85. D(H   9,C   8,O   7,H   2)      0.64  0.000221   -0.06      0.58   
    ----------------------------------------------------------------------------

         *************************************************************
         *                GEOMETRY OPTIMIZATION CYCLE   3            *
         *************************************************************
      -----------------------------------------------------------      
     |                   =====================                   |     
     |                           x T B                           |     
     |                   =====================                   |     
     |                         S. Grimme                         |     
     |          Mulliken Center for Theoretical Chemistry        |     
     |                    University of Bonn                     |     
     |                 Version 6.0.1 (SAW181210)                 |     
      -----------------------------------------------------------      

   This program is distributed in the hope that it will be useful,
   but WITHOUT ANY WARRANTY; without even the implied warranty of
   MERCHANTABILITY or FITNESS FOR A PARTICULAR PURPOSE.
   
   FOR NON-COMMERCIAL, ACADEMIA USE ONLY.
   
   Cite this work as:
   S. Grimme, C. Bannwarth, P. Shushkov, J. Comput. Theory Chem., 2017,
   13, 1989-2009.
   C. Bannwarth, S. Ehlert and S. Grimme., ChemRxiv, 2018, preprint.
   http://doi.org/10.26434/chemrxiv.7246238.v1
   
   for sTDA-xTB:
   S. Grimme and C. Bannwarth, J. Chem. Phys., 2016, 145, 054103.
   
   in the mass-spec context:
   V. Asgeirsson, C. Bauer and S. Grimme, Chem. Sci., 2017, 8, 4879.
   
   if GBSA is used:
   P. Shushkov, F. März and S. Grimme, unpublished.
   
   for ANC optimizer:
   S. Grimme, unpublished.
   Rational Function algorithm used in ANCopt:
   F. Eckert, P. Pulay, H.-J. Werner, J. Comput. Chem., 1997, 18, 1473.
   
   with help from (in alphabetical order)
   C. Bannwarth, F. Bohle, G. Brandenburg, E. Caldeweyher, M. Checinski,
   S. Dohm, S. Ehlert, S. Ehrlich, F. März, H. Neugebauer, J. Pisarek,
   P. Pracht, P. Shushkov, and S. Spicher.
   
 * started run on 2020/12/16 at 16:57:58.277     
========================================================================
 # omp threads = 1
========================================================================
calculation namespace      : orca
number of atoms            : 11
number of electrons        : 30
charge                     : 0
spin                       : .0
first test random number   : .1619

########################################################################
# WARNING! Please study the warnings concerning your input carefully
#  - XTBHOME is not set, using HOME instead
#  - XTBPATH is not set, using XTBHOME instead
########################################################################

           ------------------------------------------------- 
          |                 G F N 2 - x T B                 |
          | Geometry, Frequencies, Noncovalent interactions |
          |            JCTC 2018 parametrisation            |
           ------------------------------------------------- 
      method parameters     
 k(s)        :  1.8500
 k(p)        :  2.2300
 k(d)        :  2.2300
 k(f)        :  2.0000
 kEN (H0ij)  : -2.0000
 D4 a1       :  0.5200
 D4 a2       :  5.0000
 D4 s6       :  1.0000
 D4 s8       :  2.7000
 D4 s9       :  5.0000
 alphaj      :  2.0000


            Z     q(EN)     CN     RAES       Cart. coordinates
     1  C   4.0   -0.08    3.04    3.02     0.92889     1.72486    -1.91147
     2  H   1.0    0.07    1.00    1.43     2.77246     1.57547    -2.76834
     3  H   1.0    0.12    1.07    1.44    -0.86867    -1.02288    -4.01836
     4  C   4.0   -0.07    3.01    3.02     0.32400     0.45015     0.14782
     5  H   1.0    0.07    1.00    1.43    -1.50255     0.62931     1.03220
     6  H   1.0    0.07    1.00    1.43    -0.35789     3.04486    -2.78324
     7  H   1.0    0.06    1.00    1.43     1.63556    -0.81703     1.05654
     8  O   6.0   -0.22    2.04    1.83    -1.53586    -2.38643    -5.07219
     9  C   4.0    0.19    2.99    3.02    -1.15441    -4.66485    -4.09335
    10  H   1.0    0.05    0.99    1.43    -0.16119    -4.62063    -2.23965
    11  O   6.0   -0.25    1.10    1.80    -1.80278    -6.57949    -5.07222

  Z AO/shell   Hii/eV     exponent
  1     Wed Apr 25 08:07:45 CEST 2018   EN: 2.200 GM2: 0.406  GM3: 0.0800  RAES: 1.40
     1s    -10.707211    1.230000
  6     Wed Apr 25 08:07:45 CEST 2018   EN: 2.550 GM2: 0.538  GM3: 0.1500  RAES: 3.00
     2s    -13.970922    2.096432
     2p    -10.063292    1.800000
  8     Wed Apr 25 08:07:45 CEST 2018   EN: 3.440 GM2: 0.452  GM3:-0.0517  RAES: 1.80
     2s    -20.229985    2.439742
     2p    -15.503117    2.137023
 no old-style atom pair restraining (fixing) potential

molecular fragmentation (1/2 indicates fragments):
11211112222
# atoms in fragment 1/2:     6     5
 fragment masses (1/2) :       28.05       46.03
CMA distance (Bohr)    :   7.077
constraining FC (au)   :  0.0500
           ------------------------------------------------- 
          |        Self-Consistent Charge Iterations        |
           ------------------------------------------------- 

 Ncao       : 26
 Nao        : 26
 Nshell     : 16
 Nel        : 30
 T(el)      :   300.0
 intcut     :    25.0
 scfconv/Eh :  0.100E-05
   qconv/e  :  0.100E-03
 intneglect :  0.100E-07
 broydamp   :      0.250
 iter      E             dE          RMSdq      gap      omega  full diag
   1    -17.6955976 -0.176956E+02  0.553E+00    5.34       0.0  T
   2    -17.7538986 -0.583010E-01  0.354E+00    5.14       1.0  T
   3    -17.7574959 -0.359729E-02  0.158E+00    4.86       1.0  T
   4    -17.7590789 -0.158301E-02  0.355E-01    4.90       1.0  T
   5    -17.7594779 -0.398924E-03  0.195E-01    4.89       1.0  T
   6    -17.7596428 -0.164926E-03  0.550E-02    4.97       1.0  T
   7    -17.7596466 -0.379167E-05  0.314E-02    4.98       1.0  T
   8    -17.7596485 -0.191556E-05  0.202E-02    4.98       1.5  T
   9    -17.7596501 -0.165800E-05  0.690E-03    4.97       4.4  T
  10    -17.7596505 -0.317764E-06  0.208E-03    4.97      14.5  T
  11    -17.7596505 -0.121234E-07  0.599E-04    4.97      50.4  T
  12    -17.7596505 -0.323553E-09  0.371E-04    4.97      81.4  T
speedup  1.08
cpu  time for SCC    0.00 s
wall time for SCC    0.00 s

   *** convergence criteria satisfied after 12 iterations ***

          eigenvalues
 #    :           3          4          5          6          7          8          9         10
 occ. :        2.000      2.000      2.000      2.000      2.000      2.000      2.000      2.000
 eps  :       -17.846    -17.570    -17.132    -15.934    -15.854    -15.286    -14.684    -14.178
 #    :          11         12         13         14         15         16         17         18
 occ. :        2.000      2.000      2.000      2.000      2.000      0.000      0.000      0.000
 eps  :       -13.743    -13.222    -12.604    -12.320    -11.695     -6.723     -6.674      1.879
 #    :          19         20         21         22         23         24         25         26
 occ. :        0.000      0.000      0.000      0.000      0.000      0.000      0.000      0.000
 eps  :         2.854      3.216      3.507      4.780      8.553     11.004     15.170     17.449


   #   Z            q   n(s)   n(p)   n(d)      C6AA      α(0)
   1   6 C     -0.091  1.087  3.004  0.000    30.273     9.016
   2   1 H      0.050  0.950  0.000  0.000     2.315     2.379
   3   1 H      0.325  0.675  0.000  0.000     0.651     1.267
   4   6 C     -0.078  1.090  2.988  0.000    29.939     8.966
   5   1 H      0.051  0.949  0.000  0.000     2.307     2.375
   6   1 H      0.051  0.949  0.000  0.000     2.311     2.377
   7   1 H      0.050  0.950  0.000  0.000     2.322     2.383
   8   8 O     -0.359  1.689  4.669  0.000    20.063     6.047
   9   6 C      0.345  1.017  2.638  0.000    21.155     7.523
  10   1 H     -0.008  1.008  0.000  0.000     3.199     2.797
  11   8 O     -0.336  1.720  4.616  0.000    20.445     6.062

 Mol. C6AA /au·bohr⁶  :       1098.436535
 Mol. C8AA /au·bohr⁸  :      23676.389568
 Mol. α(0) /au        :         51.193946

 
 Wiberg/Mayer (AO) data. WBOs > 0.1 written file <wbo>
 largest (>0.05) Wiberg bond orders for each atom
           total WBO             WBO to atom ...
     1  C   3.992    C    4 2.003    H    2 0.976    H    6 0.973
     2  H   0.997    C    1 0.976
     3  H   0.894    O    8 0.832
     4  C   3.990    C    1 2.003    H    5 0.976    H    7 0.976
     5  H   0.997    C    4 0.976
     6  H   0.997    C    1 0.973
     7  H   0.998    C    4 0.976
     8  O   2.231    C    9 1.166    H    3 0.832    O   11 0.186
     9  C   3.926    O   11 1.841    O    8 1.166    H   10 0.917
    10  H   1.000    C    9 0.917    O   11 0.057
    11  O   2.099    C    9 1.841    O    8 0.186    H   10 0.057
 MOs/occ written to file <molden.input>
 
molecular dipole:
                 x           y           z       tot (Debye)
 q only:        0.494       1.197       0.812
   full:        0.672       1.450       1.114       4.952
molecular quadrupole (traceless):
                xx          xy          yy          xz          yz          zz
 q only:        6.768      -4.904      -5.051      -4.917     -12.130      -1.717
  q+dip:        9.656      -6.969      -7.197      -6.972     -16.247      -2.459
   full:        9.728      -6.695      -6.850      -7.164     -15.611      -2.878
speedup  1.03
cpu  time for grad    0.01 s
wall time for grad    0.01 s

SCC energy    :     -17.7596505
rep           :       0.2110393
ES            :       0.0440445
AES           :       0.0035221
AXC           :       0.0059054
disp          :      -0.0045514
XB            :       0.0000000
fix           :       0.0000000
grad norm     :       0.0004475
total E       :     -17.5486059
atomizationE  :       2.7874853     1749.17
(atE without considering molecular charge,
 total energy contains solvation terms)
H-L gap (eV)  :          4.9723

------------------------------------------------------------------------
 * finished run on 2020/12/16 at 16:57:58.300     
------------------------------------------------------------------------
 total:
 * wall-time:     0 d,  0 h,  0 min,  0.022 sec
 *  cpu-time:     0 d,  0 h,  0 min,  0.017 sec
 * ratio c/w:     0.780 speedup
 SCF:
 * wall-time:     0 d,  0 h,  0 min,  0.009 sec
 *  cpu-time:     0 d,  0 h,  0 min,  0.009 sec
 * ratio c/w:     1.015 speedup


-------------------------   --------------------
FINAL SINGLE POINT ENERGY       -17.548605853460
-------------------------   --------------------

------------------------------------------------------------------------------
                         ORCA GEOMETRY RELAXATION STEP
------------------------------------------------------------------------------

Reading the OPT-File                    .... done
Getting information on internals        .... done
Copying old internal coords+grads       .... done
Making the new internal coordinates     .... (new redundants).... done
Validating the new internal coordinates .... (new redundants).... done
Calculating the B-matrix                .... done
Calculating the G,G- and P matrices     .... done
Transforming gradient to internals      .... done
Projecting the internal gradient        .... done
Number of atoms                         ....  11
Number of internal coordinates          ....  85
Current Energy                          ....   -17.548605853 Eh
Current gradient norm                   ....     0.000447493 Eh/bohr
Maximum allowed component of the step   ....  0.300
Current trust radius                    ....  0.300
Updating the Hessian (BFGS)             .... done
Forming the augmented Hessian           .... done
Diagonalizing the augmented Hessian     .... done
Last element of RFO vector              ....  0.999992388
Lowest eigenvalues of augmented Hessian:
 -0.000000627  0.010107452  0.030466706  0.038462475  0.041507457
Length of the computed step             ....  0.003901928
The final length of the internal step   ....  0.003901928
Converting the step to cartesian space:
 Initial RMS(Int)=    0.0004232235
Transforming coordinates:
 Iter   0:  RMS(Cart)=    0.0006379205 RMS(Int)=    0.0004230637
 Iter   1:  RMS(Cart)=    0.0000004520 RMS(Int)=    0.0000003789
 Iter   2:  RMS(Cart)=    0.0000000008 RMS(Int)=    0.0000000005
done
Storing new coordinates                 .... done

                                .--------------------.
          ----------------------|Geometry convergence|-------------------------
          Item                value                   Tolerance       Converged
          ---------------------------------------------------------------------
          Energy change      -0.0000006081            0.0000010000      YES
          RMS gradient        0.0000246532            0.0000300000      YES
          MAX gradient        0.0001189700            0.0001000000      NO
          RMS step            0.0004232235            0.0006000000      YES
          MAX step            0.0015488975            0.0010000000      NO
          ........................................................
          Max(Bonds)      0.0002      Max(Angles)    0.02
          Max(Dihed)        0.09      Max(Improp)    0.00
          ---------------------------------------------------------------------

The optimization has not yet converged - more geometry cycles are needed


    ---------------------------------------------------------------------------
                         Redundant Internal Coordinates
                            (Angstroem and degrees)

        Definition                    Value    dE/dq     Step     New-Value
    ----------------------------------------------------------------------------
     1. B(H   1,C   0)                1.0787  0.000005  0.0000    1.0787   
     2. B(H   2,H   1)                2.4578  0.000004 -0.0002    2.4576   
     3. B(H   2,C   0)                2.0645 -0.000002 -0.0000    2.0644   
     4. B(C   3,H   2)                2.4221 -0.000001 -0.0001    2.4219   
     5. B(C   3,C   0)                1.3210 -0.000016  0.0000    1.3210   
     6. B(H   4,C   3)                1.0781 -0.000018 -0.0000    1.0781   
     7. B(H   5,H   2)                2.2658  0.000003  0.0001    2.2659   
     8. B(H   5,C   0)                1.0791  0.000025  0.0000    1.0791   
     9. B(H   6,C   3)                1.0782  0.000005 -0.0000    1.0782   
    10. B(O   7,H   2)                0.9779  0.000001 -0.0000    0.9779   
    11. B(C   8,O   7)                1.3277  0.000037  0.0000    1.3277   
    12. B(H   9,C   8)                1.1131  0.000006  0.0000    1.1131   
    13. B(O  10,C   8)                1.1885  0.000011 -0.0000    1.1885   
    14. A(H   1,C   0,C   3)          121.90  0.000007   -0.01    121.89   
    15. A(H   1,C   0,H   5)          116.00 -0.000002    0.00    116.00   
    16. A(C   3,C   0,H   5)          122.03 -0.000006    0.01    122.04   
    17. A(H   2,C   0,H   5)           86.23 -0.000003    0.01     86.24   
    18. A(H   2,C   0,C   3)           88.52  0.000004   -0.01     88.52   
    19. A(H   1,C   0,H   2)           97.94  0.000002   -0.01     97.93   
    20. A(C   0,H   1,H   2)           56.30 -0.000002    0.01     56.30   
    21. A(C   0,H   2,O   7)          173.72  0.000004   -0.01    173.72   
    22. A(C   0,H   2,H   5)           28.37  0.000006   -0.00     28.37   
    23. A(H   5,H   2,O   7)          155.31 -0.000011    0.01    155.32   
    24. A(C   0,H   2,C   3)           33.04 -0.000004    0.00     33.04   
    25. A(C   3,H   2,O   7)          148.28  0.000008   -0.01    148.27   
    26. A(C   3,H   2,H   5)           53.17 -0.000000    0.00     53.18   
    27. A(H   1,H   2,H   5)           45.36  0.000005    0.00     45.36   
    28. A(C   0,H   2,H   1)           25.77  0.000001    0.00     25.77   
    29. A(H   1,H   2,O   7)          148.14  0.000003   -0.01    148.13   
    30. A(H   1,H   2,C   3)           51.00 -0.000001    0.00     51.00   
    31. A(H   4,C   3,H   6)          115.99 -0.000010    0.02    116.01   
    32. A(H   2,C   3,H   6)          111.93 -0.000004    0.02    111.96   
    33. A(C   0,C   3,H   6)          121.97  0.000001   -0.01    121.97   
    34. A(H   2,C   3,H   4)          100.94  0.000006   -0.00    100.94   
    35. A(C   0,C   3,H   2)           58.44 -0.000000    0.00     58.44   
    36. A(C   0,C   3,H   4)          122.04  0.000009   -0.02    122.02   
    37. A(C   0,H   5,H   2)           65.39 -0.000003   -0.01     65.39   
    38. A(H   2,O   7,C   8)          113.12 -0.000000    0.01    113.13   
    39. A(H   9,C   8,O  10)          122.57 -0.000002   -0.01    122.56   
    40. A(O   7,C   8,O  10)          124.07  0.000002    0.00    124.07   
    41. A(O   7,C   8,H   9)          113.36 -0.000001    0.01    113.37   
    42. D(H   2,H   1,C   0,C   3)     93.22  0.000008   -0.01     93.20   
    43. D(H   2,H   1,C   0,H   5)    -89.67  0.000003   -0.01    -89.67   
    44. D(C   3,H   2,C   0,H   1)    122.02  0.000008   -0.01    122.01   
    45. D(H   1,H   2,C   0,C   3)   -122.02 -0.000008    0.01   -122.01   
    46. D(H   5,H   2,C   0,H   1)   -115.75  0.000002   -0.00   -115.75   
    47. D(C   3,H   2,C   0,H   5)   -122.23  0.000006   -0.01   -122.24   
    48. D(H   1,H   2,C   0,H   5)    115.75 -0.000002    0.00    115.75   
    49. D(O   7,H   2,C   0,C   3)   -106.92 -0.000037    0.08   -106.84   
    50. D(C   3,H   2,H   1,C   0)    -36.50  0.000008   -0.01    -36.51   
    51. D(O   7,H   2,H   1,C   0)   -176.91 -0.000007    0.02   -176.89   
    52. D(O   7,H   2,C   0,H   1)     15.10 -0.000028    0.07     15.17   
    53. D(O   7,H   2,C   0,H   5)    130.85 -0.000030    0.07    130.92   
    54. D(H   5,H   2,H   1,C   0)     36.98  0.000005   -0.00     36.98   
    55. D(H   5,H   2,C   0,C   3)    122.23 -0.000006    0.01    122.24   
    56. D(H   4,C   3,C   0,H   1)    178.55 -0.000007    0.01    178.56   
    57. D(H   4,C   3,H   2,H   5)     90.87 -0.000002   -0.01     90.86   
    58. D(H   4,C   3,H   2,H   1)    149.33  0.000006   -0.01    149.32   
    59. D(H   4,C   3,H   2,O   7)    -70.45  0.000014   -0.03    -70.49   
    60. D(C   0,C   3,H   2,H   5)    -30.15 -0.000009    0.01    -30.14   
    61. D(C   0,C   3,H   2,H   1)     28.31 -0.000002    0.01     28.32   
    62. D(C   0,C   3,H   2,O   7)    168.53  0.000007   -0.02    168.51   
    63. D(H   2,C   3,C   0,H   5)     84.62 -0.000001    0.01     84.63   
    64. D(H   2,C   3,C   0,H   1)    -98.43 -0.000005    0.02    -98.42   
    65. D(H   6,C   3,C   0,H   2)     97.66 -0.000006    0.04     97.70   
    66. D(H   6,C   3,C   0,H   1)     -0.77 -0.000012    0.05     -0.72   
    67. D(H   4,C   3,H   2,C   0)    121.02  0.000007   -0.02    121.00   
    68. D(H   6,C   3,C   0,H   5)   -177.71 -0.000007    0.04   -177.67   
    69. D(H   4,C   3,C   0,H   2)    -83.02 -0.000002   -0.01    -83.02   
    70. D(H   6,C   3,H   2,O   7)     53.53  0.000004    0.00     53.53   
    71. D(H   6,C   3,H   2,C   0)   -115.00 -0.000003    0.02   -114.98   
    72. D(H   6,C   3,H   2,H   5)   -145.14 -0.000012    0.03   -145.12   
    73. D(H   6,C   3,H   2,H   1)    -86.69 -0.000005    0.03    -86.66   
    74. D(H   4,C   3,C   0,H   5)      1.61 -0.000002   -0.00      1.61   
    75. D(C   0,H   5,H   2,C   3)     35.18 -0.000002   -0.00     35.18   
    76. D(C   0,H   5,H   2,H   1)    -33.38  0.000002   -0.00    -33.39   
    77. D(C   0,H   5,H   2,O   7)   -168.58 -0.000007    0.01   -168.58   
    78. D(H   2,H   5,C   0,C   3)    -85.89 -0.000004    0.00    -85.89   
    79. D(H   2,H   5,C   0,H   1)     97.00  0.000001   -0.01     96.99   
    80. D(C   8,O   7,H   2,H   5)   -167.64 -0.000101    0.06   -167.58   
    81. D(C   8,O   7,H   2,C   3)    -25.48 -0.000119    0.09    -25.39   
    82. D(C   8,O   7,H   2,H   1)     84.13 -0.000099    0.05     84.18   
    83. D(C   8,O   7,H   2,C   0)     71.74 -0.000077   -0.01     71.73   
    84. D(O  10,C   8,O   7,H   2)   -179.60 -0.000048    0.06   -179.53   
    85. D(H   9,C   8,O   7,H   2)      0.58  0.000038   -0.02      0.56   
    ----------------------------------------------------------------------------

         *************************************************************
         *                GEOMETRY OPTIMIZATION CYCLE   4            *
         *************************************************************
      -----------------------------------------------------------      
     |                   =====================                   |     
     |                           x T B                           |     
     |                   =====================                   |     
     |                         S. Grimme                         |     
     |          Mulliken Center for Theoretical Chemistry        |     
     |                    University of Bonn                     |     
     |                 Version 6.0.1 (SAW181210)                 |     
      -----------------------------------------------------------      

   This program is distributed in the hope that it will be useful,
   but WITHOUT ANY WARRANTY; without even the implied warranty of
   MERCHANTABILITY or FITNESS FOR A PARTICULAR PURPOSE.
   
   FOR NON-COMMERCIAL, ACADEMIA USE ONLY.
   
   Cite this work as:
   S. Grimme, C. Bannwarth, P. Shushkov, J. Comput. Theory Chem., 2017,
   13, 1989-2009.
   C. Bannwarth, S. Ehlert and S. Grimme., ChemRxiv, 2018, preprint.
   http://doi.org/10.26434/chemrxiv.7246238.v1
   
   for sTDA-xTB:
   S. Grimme and C. Bannwarth, J. Chem. Phys., 2016, 145, 054103.
   
   in the mass-spec context:
   V. Asgeirsson, C. Bauer and S. Grimme, Chem. Sci., 2017, 8, 4879.
   
   if GBSA is used:
   P. Shushkov, F. März and S. Grimme, unpublished.
   
   for ANC optimizer:
   S. Grimme, unpublished.
   Rational Function algorithm used in ANCopt:
   F. Eckert, P. Pulay, H.-J. Werner, J. Comput. Chem., 1997, 18, 1473.
   
   with help from (in alphabetical order)
   C. Bannwarth, F. Bohle, G. Brandenburg, E. Caldeweyher, M. Checinski,
   S. Dohm, S. Ehlert, S. Ehrlich, F. März, H. Neugebauer, J. Pisarek,
   P. Pracht, P. Shushkov, and S. Spicher.
   
 * started run on 2020/12/16 at 16:57:58.390     
========================================================================
 # omp threads = 1
========================================================================
calculation namespace      : orca
number of atoms            : 11
number of electrons        : 30
charge                     : 0
spin                       : .0
first test random number   : .5024

########################################################################
# WARNING! Please study the warnings concerning your input carefully
#  - XTBHOME is not set, using HOME instead
#  - XTBPATH is not set, using XTBHOME instead
########################################################################

           ------------------------------------------------- 
          |                 G F N 2 - x T B                 |
          | Geometry, Frequencies, Noncovalent interactions |
          |            JCTC 2018 parametrisation            |
           ------------------------------------------------- 
      method parameters     
 k(s)        :  1.8500
 k(p)        :  2.2300
 k(d)        :  2.2300
 k(f)        :  2.0000
 kEN (H0ij)  : -2.0000
 D4 a1       :  0.5200
 D4 a2       :  5.0000
 D4 s6       :  1.0000
 D4 s8       :  2.7000
 D4 s9       :  5.0000
 alphaj      :  2.0000


            Z     q(EN)     CN     RAES       Cart. coordinates
     1  C   4.0   -0.08    3.04    3.02     0.92867     1.72506    -1.91141
     2  H   1.0    0.07    1.00    1.43     2.77222     1.57585    -2.76841
     3  H   1.0    0.12    1.07    1.44    -0.86827    -1.02268    -4.01868
     4  C   4.0   -0.07    3.01    3.02     0.32424     0.44955     0.14753
     5  H   1.0    0.07    1.00    1.43    -1.50238     0.62853     1.03178
     6  H   1.0    0.07    1.00    1.43    -0.35822     3.04519    -2.78291
     7  H   1.0    0.06    1.00    1.43     1.63669    -0.81665     1.05626
     8  O   6.0   -0.22    2.04    1.83    -1.53493    -2.38641    -5.07254
     9  C   4.0    0.19    2.99    3.02    -1.15534    -4.66478    -4.09279
    10  H   1.0    0.05    0.99    1.43    -0.16336    -4.62076    -2.23842
    11  O   6.0   -0.25    1.10    1.80    -1.80176    -6.57955    -5.07268

  Z AO/shell   Hii/eV     exponent
  1     Wed Apr 25 08:07:45 CEST 2018   EN: 2.200 GM2: 0.406  GM3: 0.0800  RAES: 1.40
     1s    -10.707211    1.230000
[...]
     15      -0.408175  -0.032043  -0.097357  -0.119248   0.105236   0.113134
     16      -0.081969  -0.184631  -0.180390  -0.320887   0.273375   0.366924
     17       0.188327  -0.005111  -0.156206  -0.173535   0.279637   0.294761
     18       0.316628  -0.089746   0.031882   0.129539   0.027976  -0.163057
     19       0.081836  -0.246536   0.205364   0.339775   0.056593  -0.368650
     20      -0.188970  -0.028798   0.163597   0.349358   0.095542  -0.294199
     21       0.246046  -0.017853  -0.000093  -0.003744  -0.073386   0.022962
     22      -0.067231   0.080046   0.000598  -0.008896  -0.143297  -0.009100
     23      -0.028521  -0.242266   0.002318  -0.079663  -0.312485  -0.006116
     24      -0.069112   0.074303   0.199871   0.002685  -0.023485   0.070671
     25       0.029203   0.223905  -0.055823   0.007309  -0.046213  -0.020539
     26       0.005788   0.024764  -0.012387  -0.051040  -0.107965  -0.005765
     27      -0.289120   0.168312   0.736698   0.018994   0.032910   0.218810
     28       0.104904   0.479932  -0.206438   0.033982   0.147960  -0.058292
     29       0.018379  -0.012697  -0.046593  -0.054745  -0.139597  -0.015805
     30      -0.113840   0.061256  -0.158511  -0.006934  -0.031578  -0.042439
     31       0.035003   0.099728   0.044330  -0.001934  -0.136872   0.009224
     32       0.022366   0.290414   0.009441  -0.025203   0.089601   0.004996
                 12         13         14         15         16         17    
      0      -0.005607   0.000918   0.039342  -0.039739  -0.000821   0.022230
      1       0.001341   0.002815  -0.012398  -0.105177   0.000650   0.057945
      2      -0.000282   0.008799  -0.002583  -0.088010   0.000382   0.051226
      3      -0.006602  -0.000280  -0.173897   0.129066   0.008526  -0.140394
      4       0.013234  -0.003843   0.325223   0.355539   0.013808  -0.373261
      5      -0.007445   0.004805  -0.335879   0.298940   0.019107  -0.320674
      6       0.955893   0.070049  -0.022067   0.000369   0.037577  -0.000558
      7      -0.266295   0.071685   0.006027   0.036398  -0.010543  -0.023389
      8      -0.050175  -0.685203   0.001479  -0.029545  -0.002308   0.013133
      9      -0.002715  -0.000416   0.038752   0.042666   0.000441   0.022983
     10       0.001218  -0.000369  -0.012744   0.113642  -0.000450   0.061489
     11       0.000969  -0.001232  -0.002968   0.086672  -0.000224   0.047563
     12       0.005858  -0.001783  -0.173490  -0.142893   0.007932  -0.142073
     13       0.038360   0.001283   0.328887  -0.375963   0.013553  -0.374222
     14       0.016692  -0.004447  -0.332936  -0.288253   0.014363  -0.286860
     15      -0.009845  -0.004304  -0.286926   0.138615  -0.004608  -0.141183
     16       0.000321  -0.004273  -0.178787   0.350535  -0.018104  -0.363823
     17       0.015247   0.008388   0.366870   0.300132  -0.021849  -0.312914
     18      -0.019808  -0.002010  -0.287746  -0.140941  -0.002535  -0.135311
     19      -0.035100  -0.006853  -0.178786  -0.378981  -0.013130  -0.366826
     20      -0.015935  -0.008130   0.366701  -0.286522  -0.013298  -0.280471
     21      -0.049930  -0.100710   0.000552  -0.000291  -0.051844   0.001153
     22       0.018468  -0.326784  -0.000072  -0.001874   0.014442   0.005325
     23       0.004000  -0.071261   0.000011   0.002427   0.003275  -0.003198
     24      -0.038126   0.027283   0.001872   0.000642   0.221408  -0.000537
     25       0.010431   0.022662  -0.000540  -0.000417  -0.061533  -0.002548
     26      -0.003853   0.377061  -0.000134  -0.001587  -0.014267   0.003899
     27      -0.052624   0.002823  -0.005818  -0.004954  -0.930765  -0.001166
     28       0.015983  -0.053823   0.001630  -0.008967   0.258253  -0.005722
     29      -0.001969   0.336280   0.000334   0.000126   0.059838   0.000918
     30       0.029806   0.075787  -0.000735  -0.001082  -0.058402   0.000633
     31      -0.013508   0.307673   0.000187  -0.002818   0.016240   0.001886
     32       0.001123  -0.195548   0.000062   0.000091   0.003797   0.000883
                 18         19         20         21         22         23    
      0       0.006181   0.000072   0.149131   0.002560   0.007394  -0.000235
      1      -0.001469  -0.002666  -0.048003   0.006805   0.033305  -0.000928
      2       0.000167   0.003627  -0.010411   0.008077  -0.047802   0.001084
      3       0.131565   0.002890  -0.095457  -0.000308  -0.150775  -0.011003
      4       0.384550  -0.021473   0.304702  -0.042622   0.342458   0.019530
      5       0.298146   0.003630  -0.368111  -0.009635  -0.345688  -0.019292
      6      -0.037372   0.127031   0.001766   0.106256   0.005210  -0.003563
      7       0.007633   0.604835  -0.001627   0.562656   0.025193  -0.010221
      8       0.004863  -0.694716   0.000966  -0.760808  -0.024779  -0.012626
      9      -0.003049  -0.001911  -0.149152  -0.000051  -0.008410  -0.000512
     10       0.001604  -0.002645   0.047844  -0.000637  -0.036884  -0.001809
     11       0.000638  -0.006397   0.010379  -0.002053   0.049877   0.000683
     12       0.141783   0.001869   0.088326  -0.001101   0.145315   0.006165
     13       0.360957   0.020225  -0.325879   0.003601  -0.314033  -0.003334
     14       0.290299  -0.001009   0.351384  -0.008305   0.340790   0.010646
     15      -0.157381  -0.017817  -0.206863  -0.026013   0.276201   0.017853
     16      -0.384626  -0.021613  -0.206652  -0.035600   0.205073   0.010573
     17      -0.303789   0.004506   0.389737  -0.010579  -0.375236  -0.021114
     18      -0.133729   0.010722   0.216348   0.000857  -0.255983  -0.005430
     19      -0.371288   0.015923   0.229214   0.000439  -0.185329   0.000871
     20      -0.296893  -0.007431  -0.372829  -0.008781   0.368310   0.011875
     21       0.001911   0.044345  -0.000553  -0.016514   0.000173  -0.001620
     22      -0.000677   0.169845  -0.000438  -0.096164   0.000219   0.000892
     23      -0.000211  -0.042877   0.000352   0.159813   0.001777  -0.029299
     24      -0.004794  -0.024693   0.000890   0.014241  -0.000385   0.011394
     25       0.001580  -0.127083   0.000233   0.091189  -0.001915   0.047985
     26       0.000171   0.166012  -0.000753  -0.173420   0.002386  -0.029309
     27       0.027447  -0.039329  -0.004651   0.004642   0.009315  -0.258225
     28      -0.007707  -0.169781   0.001755   0.042343   0.034352  -0.955242
     29      -0.001914   0.116689  -0.000177  -0.113706  -0.003056   0.107691
     30       0.001081  -0.029805  -0.000066  -0.001374  -0.000966   0.009643
     31       0.000050  -0.097426   0.000287  -0.010369  -0.002881   0.024226
     32       0.000063  -0.043237   0.000176   0.023306  -0.002627   0.045113
                 24         25         26         27         28         29    
      0       0.010050   0.056130   0.000648   0.000074   0.004382   0.002514
      1       0.043134   0.246775   0.005280   0.000022   0.040400  -0.005821
      2      -0.055505  -0.332497  -0.014322   0.000712  -0.048993   0.005434
      3       0.202204   0.325925   0.011024   0.000409  -0.587224   0.093574
      4      -0.327148  -0.216471   0.004604  -0.000227  -0.028228   0.003260
      5       0.294594   0.091470   0.005785  -0.000814   0.289225  -0.044658
      6      -0.000939   0.006094   0.023590   0.003553  -0.006694   0.005253
      7      -0.003911   0.030918   0.129950   0.012187  -0.019856   0.015612
      8       0.006869   0.014683  -0.230491   0.006367  -0.018737   0.014780
      9       0.008669  -0.053730  -0.002596   0.000105  -0.000510  -0.011119
     10       0.039065  -0.240762  -0.010363   0.000350  -0.009920  -0.034024
     11      -0.054527   0.338024   0.010312  -0.000240   0.013309   0.050369
     12       0.214933  -0.333914  -0.005765   0.001407   0.104136   0.635813
     13      -0.331321   0.199914   0.009339  -0.001134   0.001809   0.015757
     14       0.323289  -0.105587   0.004398  -0.000937  -0.053883  -0.334956
     15      -0.315579  -0.376593  -0.005426  -0.000670   0.544975  -0.120238
     16      -0.161525   0.008406   0.010024   0.000156  -0.419432   0.093503
     17       0.330411   0.139931   0.006822  -0.000795   0.241034  -0.054293
     18      -0.324262   0.371290   0.010681  -0.002098  -0.108951  -0.506180
     19      -0.158480  -0.026706   0.004106  -0.000091   0.079470   0.363773
     20       0.360132  -0.154926   0.003246  -0.000844  -0.051399  -0.231196
     21       0.000019  -0.001107   0.014474   0.000487   0.000465  -0.000353
     22       0.000393  -0.003078   0.050808   0.003314   0.001376  -0.001035
     23      -0.001483  -0.004782   0.006095  -0.006762   0.001286  -0.001019
     24       0.000129   0.002778  -0.202554  -0.008075   0.000083  -0.000020
     25       0.000320   0.008782  -0.668755  -0.012953   0.000344  -0.000176
     26       0.000492   0.005004  -0.258586  -0.069677  -0.000180   0.000479
     27      -0.004714  -0.005751  -0.019644   0.092083   0.000104   0.000210
     28      -0.017261  -0.023504   0.002870   0.102873   0.000045   0.001336
     29       0.002102   0.013493  -0.320252   0.987707   0.001469  -0.002554
     30       0.000219  -0.001964   0.138141  -0.000526  -0.000054  -0.000005
     31       0.000639  -0.006300   0.444929  -0.001037  -0.000185   0.000004
     32       0.000718  -0.003065   0.224468  -0.003700  -0.000049  -0.000100
                  30         31         32    
      0       0.069647   0.058518  -0.000314
      1      -0.019775  -0.018072  -0.001334
      2      -0.007906  -0.004942  -0.003472
      3      -0.521680  -0.390778   0.022126
      4      -0.050966  -0.035497   0.006225
      5       0.287170   0.211796  -0.004523
      6       0.001964   0.005436  -0.250849
      7      -0.001217   0.001689  -0.776852
      8      -0.000873   0.001958  -0.572510
      9      -0.053161   0.073294  -0.000432
     10       0.018719  -0.023870  -0.002740
     11       0.001499  -0.004626   0.003370
     12       0.343021  -0.473599   0.007998
     13       0.026679  -0.030931   0.000818
     14      -0.204976   0.274018  -0.002914
     15      -0.356972  -0.302511  -0.018595
     16       0.302692   0.250411   0.021840
     17      -0.190350  -0.154088  -0.003715
     18       0.337688  -0.406771  -0.008371
     19      -0.265510   0.316835   0.007208
     20       0.184642  -0.217376  -0.002955
     21      -0.000037  -0.000200   0.015476
     22       0.000056  -0.000149   0.046996
     23       0.000055  -0.000146   0.038120
     24       0.000021   0.000059   0.001599
     25       0.000014  -0.000042   0.006101
     26      -0.000037   0.000019  -0.001424
     27      -0.000105   0.000252   0.001716
     28      -0.000057  -0.000075   0.002578
     29       0.000206  -0.000233   0.015072
     30      -0.000001  -0.000013  -0.000620
     31      -0.000005   0.000012  -0.002009
     32       0.000006   0.000002  -0.000964


-----------
IR SPECTRUM  
-----------

 Mode    freq (cm**-1)   T**2         TX         TY         TZ
-------------------------------------------------------------------
   6:        34.30    0.000000  (  0.000000   0.000000   0.000000)
   7:        48.91    0.000000  (  0.000000   0.000000   0.000000)
   8:        89.98    0.000000  (  0.000000   0.000000   0.000000)
   9:        97.04    0.000000  (  0.000000   0.000000   0.000000)
  10:       149.56    0.000000  (  0.000000   0.000000   0.000000)
  11:       169.74    0.000000  (  0.000000   0.000000   0.000000)
  12:       594.17    0.000000  (  0.000000   0.000000   0.000000)
  13:       620.87    0.000000  (  0.000000   0.000000   0.000000)
  14:       841.26    0.000000  (  0.000000   0.000000   0.000000)
  15:       885.41    0.000000  (  0.000000   0.000000   0.000000)
  16:       956.51    0.000000  (  0.000000   0.000000   0.000000)
  17:      1032.50    0.000000  (  0.000000   0.000000   0.000000)
  18:      1044.62    0.000000  (  0.000000   0.000000   0.000000)
  19:      1132.74    0.000000  (  0.000000   0.000000   0.000000)
  20:      1178.73    0.000000  (  0.000000   0.000000   0.000000)
  21:      1212.79    0.000000  (  0.000000   0.000000   0.000000)
  22:      1385.75    0.000000  (  0.000000   0.000000   0.000000)
  23:      1411.81    0.000000  (  0.000000   0.000000   0.000000)
  24:      1413.98    0.000000  (  0.000000   0.000000   0.000000)
  25:      1683.27    0.000000  (  0.000000   0.000000   0.000000)
  26:      1823.09    0.000000  (  0.000000   0.000000   0.000000)
  27:      2704.51    0.000000  (  0.000000   0.000000   0.000000)
  28:      3088.38    0.000000  (  0.000000   0.000000   0.000000)
  29:      3095.68    0.000000  (  0.000000   0.000000   0.000000)
  30:      3102.58    0.000000  (  0.000000   0.000000   0.000000)
  31:      3127.80    0.000000  (  0.000000   0.000000   0.000000)
  32:      3206.59    0.000000  (  0.000000   0.000000   0.000000)

The first frequency considered to be a vibration is 6
The total number of vibrations considered is 27


--------------------------
THERMOCHEMISTRY AT 298.15K
--------------------------

Temperature         ... 298.15 K
Pressure            ... 1.00 atm
Total Mass          ... 74.08 AMU

Throughout the following assumptions are being made:
  (1) The electronic state is orbitally nondegenerate
  (2) There are no thermally accessible electronically excited states
  (3) Hindered rotations indicated by low frequency modes are not
      treated as such but are treated as vibrations and this may
      cause some error
  (4) All equations used are the standard statistical mechanics
      equations for an ideal gas
  (5) All vibrations are strictly harmonic

freq.      34.30  E(vib)   ...       0.54 
freq.      48.91  E(vib)   ...       0.53 
freq.      89.98  E(vib)   ...       0.47 
freq.      97.04  E(vib)   ...       0.46 
freq.     149.56  E(vib)   ...       0.40 
freq.     169.74  E(vib)   ...       0.38 
freq.     594.17  E(vib)   ...       0.10 
freq.     620.87  E(vib)   ...       0.09 
freq.     841.26  E(vib)   ...       0.04 
freq.     885.41  E(vib)   ...       0.04 
freq.     956.51  E(vib)   ...       0.03 
freq.    1032.50  E(vib)   ...       0.02 
freq.    1044.62  E(vib)   ...       0.02 
freq.    1132.74  E(vib)   ...       0.01 
freq.    1178.73  E(vib)   ...       0.01 
freq.    1212.79  E(vib)   ...       0.01 
freq.    1385.75  E(vib)   ...       0.00 
freq.    1411.81  E(vib)   ...       0.00 
freq.    1413.98  E(vib)   ...       0.00 
freq.    1683.27  E(vib)   ...       0.00 
freq.    1823.09  E(vib)   ...       0.00 
freq.    2704.51  E(vib)   ...       0.00 
freq.    3088.38  E(vib)   ...       0.00 
freq.    3095.68  E(vib)   ...       0.00 
freq.    3102.58  E(vib)   ...       0.00 
freq.    3127.80  E(vib)   ...       0.00 
freq.    3206.59  E(vib)   ...       0.00 

------------
INNER ENERGY
------------

The inner energy is: U= E(el) + E(ZPE) + E(vib) + E(rot) + E(trans)
    E(el)   - is the total energy from the electronic structure calculation
              = E(kin-el) + E(nuc-el) + E(el-el) + E(nuc-nuc)
    E(ZPE)  - the the zero temperature vibrational energy from the frequency calculation
    E(vib)  - the the finite temperature correction to E(ZPE) due to population
              of excited vibrational states
    E(rot)  - is the rotational thermal energy
    E(trans)- is the translational thermal energy

Summary of contributions to the inner energy U:
Electronic energy                ...    -17.54879741 Eh
Zero point energy                ...      0.08231602 Eh      51.65 kcal/mol
Thermal vibrational correction   ...      0.00507866 Eh       3.19 kcal/mol
Thermal rotational correction    ...      0.00141627 Eh       0.89 kcal/mol
Thermal translational correction ...      0.00141627 Eh       0.89 kcal/mol
-----------------------------------------------------------------------
Total thermal energy                    -17.45857020 Eh


Summary of corrections to the electronic energy:
(perhaps to be used in another calculation)
Total thermal correction                  0.00791120 Eh       4.96 kcal/mol
Non-thermal (ZPE) correction              0.08231602 Eh      51.65 kcal/mol
-----------------------------------------------------------------------
Total correction                          0.09022722 Eh      56.62 kcal/mol


--------
ENTHALPY
--------

The enthalpy is H = U + kB*T
                kB is Boltzmann's constant
Total free energy                 ...    -17.45857020 Eh 
Thermal Enthalpy correction       ...      0.00094421 Eh       0.59 kcal/mol
-----------------------------------------------------------------------
Total Enthalpy                    ...    -17.45762599 Eh


Note: Only C1 symmetry has been detected, increase convergence thresholds 
      if your molecule has a higher symmetry. Symmetry factor of 1.0 is   
      used for the rotational entropy correction. 
 

Note: Rotational entropy computed according to Herzberg 
Infrared and Raman Spectra, Chapter V,1, Van Nostrand Reinhold, 1945 
Point Group:  C1, Symmetry Number:   1  
Rotational constants in cm-1:     0.444404     0.061701     0.055386 

Vibrational entropy computed according to the QRRHO of S. Grimme
Chem.Eur.J. 2012 18 9955


-------
ENTROPY
-------

The entropy contributions are T*S = T*(S(el)+S(vib)+S(rot)+S(trans))
     S(el)   - electronic entropy
     S(vib)  - vibrational entropy
     S(rot)  - rotational entropy
     S(trans)- translational entropy
The entropies will be listed as mutliplied by the temperature to get
units of energy

Electronic entropy                ...      0.00000000 Eh      0.00 kcal/mol
Vibrational entropy               ...      0.00985163 Eh      6.18 kcal/mol
Rotational entropy                ...      0.01257463 Eh      7.89 kcal/mol
Translational entropy             ...      0.01844631 Eh     11.58 kcal/mol
-----------------------------------------------------------------------
Final entropy term                ...      0.04087256 Eh     25.65 kcal/mol

In case the symmetry of your molecule has not been determined correctly
or in case you have a reason to use a different symmetry number we print 
out the resulting rotational entropy values for sn=1,12 :
 --------------------------------------------------------
|  sn= 1 | S(rot)=       0.01257463 Eh      7.89 kcal/mol|
|  sn= 2 | S(rot)=       0.01192017 Eh      7.48 kcal/mol|
|  sn= 3 | S(rot)=       0.01153734 Eh      7.24 kcal/mol|
|  sn= 4 | S(rot)=       0.01126572 Eh      7.07 kcal/mol|
|  sn= 5 | S(rot)=       0.01105503 Eh      6.94 kcal/mol|
|  sn= 6 | S(rot)=       0.01088288 Eh      6.83 kcal/mol|
|  sn= 7 | S(rot)=       0.01073734 Eh      6.74 kcal/mol|
|  sn= 8 | S(rot)=       0.01061126 Eh      6.66 kcal/mol|
|  sn= 9 | S(rot)=       0.01050005 Eh      6.59 kcal/mol|
|  sn=10 | S(rot)=       0.01040057 Eh      6.53 kcal/mol|
|  sn=11 | S(rot)=       0.01031058 Eh      6.47 kcal/mol|
|  sn=12 | S(rot)=       0.01022843 Eh      6.42 kcal/mol|
 --------------------------------------------------------


-------------------
GIBBS FREE ENERGY
-------------------

The Gibbs free energy is G = H - T*S

Total enthalpy                    ...    -17.45762599 Eh 
Total entropy correction          ...     -0.04087256 Eh    -25.65 kcal/mol
-----------------------------------------------------------------------
Final Gibbs free energy         ...    -17.49849855 Eh

For completeness - the Gibbs free energy minus the electronic energy
G-E(el)                           ...      0.05029886 Eh     31.56 kcal/mol


Total Time for Numerical Frequencies  :        85.113 sec

Timings for individual modules:

Sum of individual times         ...        6.137 sec (=   0.102 min)
Geometry relaxation             ...        4.154 sec (=   0.069 min)  67.7 %
XTB module                      ...        1.983 sec (=   0.033 min)  32.3 %
                             ****ORCA TERMINATED NORMALLY****
TOTAL RUN TIME: 0 days 0 hours 1 minutes 34 seconds 57 msec
