
                                 *****************
                                 * O   R   C   A *
                                 *****************

           --- An Ab Initio, DFT and Semiempirical electronic structure package ---

                  #######################################################
                  #                        -***-                        #
                  #          Department of theory and spectroscopy      #
                  #               Directorship: Frank Neese             #
                  #        Max Planck Institute fuer Kohlenforschung    #
                  #                Kaiser Wilhelm Platz 1               #
                  #                 D-45470 Muelheim/Ruhr               #
                  #                      Germany                        #
                  #                                                     #
                  #                  All rights reserved                #
                  #                        -***-                        #
                  #######################################################


                         Program Version 4.2.1 -  RELEASE  -


 With contributions from (in alphabetic order):
   Daniel Aravena         : Magnetic Suceptibility
   Michael Atanasov       : Ab Initio Ligand Field Theory (pilot matlab implementation)
   Alexander A. Auer      : GIAO ZORA, VPT2
   Ute Becker             : Parallelization
   Giovanni Bistoni       : ED, misc. LED, open-shell LED, HFLD
   Martin Brehm           : Molecular dynamics
   Dmytro Bykov           : SCF Hessian
   Vijay G. Chilkuri      : MRCI spin determinant printing, contributions to CSF-ICE
   Dipayan Datta          : RHF DLPNO-CCSD density
   Achintya Kumar Dutta   : EOM-CC, STEOM-CC
   Dmitry Ganyushin       : Spin-Orbit,Spin-Spin,Magnetic field MRCI
   Miquel Garcia          : C-PCM Hessian, Gaussian charge scheme
   Yang Guo               : DLPNO-NEVPT2, CIM, IAO-localization
   Andreas Hansen         : Spin unrestricted coupled pair/coupled cluster methods
   Benjamin Helmich-Paris : CASSCF linear response (MC-RPA)
   Lee Huntington         : MR-EOM, pCC
   Robert Izsak           : Overlap fitted RIJCOSX, COSX-SCS-MP3, EOM
   Christian Kollmar      : KDIIS, OOCD, Brueckner-CCSD(T), CCSD density
   Simone Kossmann        : Meta GGA functionals, TD-DFT gradient, OOMP2, MP2 Hessian
   Martin Krupicka        : AUTO-CI
   Lucas Lang             : DCDCAS
   Dagmar Lenk            : GEPOL surface, SMD
   Dimitrios Liakos       : Extrapolation schemes; Compound Job, initial MDCI parallelization
   Dimitrios Manganas     : Further ROCIS development; embedding schemes
   Dimitrios Pantazis     : SARC Basis sets
   Taras Petrenko         : DFT Hessian,TD-DFT gradient, ASA, ECA, R-Raman, ABS, FL, XAS/XES, NRVS
   Peter Pinski           : DLPNO-MP2, DLPNO-MP2 Gradient
   Christoph Reimann      : Effective Core Potentials
   Marius Retegan         : Local ZFS, SOC
   Christoph Riplinger    : Optimizer, TS searches, QM/MM, DLPNO-CCSD(T), (RO)-DLPNO pert. Triples
   Tobias Risthaus        : Range-separated hybrids, TD-DFT gradient, RPA, STAB
   Michael Roemelt        : Original ROCIS implementation
   Masaaki Saitow         : Open-shell DLPNO-CCSD energy and density
   Barbara Sandhoefer     : DKH picture change effects
   Avijit Sen             : IP-ROCIS
   Kantharuban Sivalingam : CASSCF convergence, NEVPT2, FIC-MRCI
   Bernardo de Souza      : ESD, SOC TD-DFT
   Georgi Stoychev        : AutoAux, RI-MP2 NMR
   Willem Van den Heuvel  : Paramagnetic NMR
   Boris Wezisla          : Elementary symmetry handling
   Frank Wennmohs         : Technical directorship


 We gratefully acknowledge several colleagues who have allowed us to
 interface, adapt or use parts of their codes:
   Stefan Grimme, W. Hujo, H. Kruse,             : VdW corrections, initial TS optimization,
                  C. Bannwarth                     DFT functionals, gCP, sTDA/sTD-DF
   Ed Valeev, F. Pavosevic, A. Kumar             : LibInt (2-el integral package), F12 methods
   Garnet Chan, S. Sharma, J. Yang, R. Olivares  : DMRG
   Ulf Ekstrom                                   : XCFun DFT Library
   Mihaly Kallay                                 : mrcc  (arbitrary order and MRCC methods)
   Andreas Klamt, Michael Diedenhofen            : otool_cosmo (COSMO solvation model)
   Jiri Pittner, Ondrej Demel                    : Mk-CCSD
   Frank Weinhold                                : gennbo (NPA and NBO analysis)
   Christopher J. Cramer and Donald G. Truhlar   : smd solvation model
   Lars Goerigk                                  : TD-DFT with DH, B97 family of functionals
   V. Asgeirsson, H. Jonsson                     : NEB implementation
   FAccTs GmbH                                   : IRC, NEB, NEB-TS, Multilevel, MM, QM/MM, CI optimization
   S Lehtola, MJT Oliveira, MAL Marques          : LibXC Library


 Your calculation uses the libint2 library for the computation of 2-el integrals
 For citations please refer to: http://libint.valeyev.net

 Your ORCA version has been built with support for libXC version: 4.2.3
 For citations please refer to: https://tddft.org/programs/libxc/

 This ORCA versions uses:
   CBLAS   interface :  Fast vector & matrix operations
   LAPACKE interface :  Fast linear algebra routines
   SCALAPACK package :  Parallel linear algebra routines




***************************************
The coordinates will be read from file: orcaSpecial.xyz
***************************************


Your calculation utilizes the semiempirical GFN2-xTB method
Please cite in your paper:
C. Bannwarth, Ehlert S., S. Grimme,  J. Chem. Theory Comput., 15, (2019), 1652.
   

----- Orbital basis set information -----
Your calculation utilizes the basis: def2-SVP
   F. Weigend and R. Ahlrichs, Phys. Chem. Chem. Phys. 7, 3297 (2005).

================================================================================
                                        WARNINGS
                       Please study these warnings very carefully!
================================================================================

WARNING: Gradients needed for Numerical Frequencies
  ===> : Setting RunTyp to EnGrad

WARNING: Found dipole moment calculation with XTB calculation
  ===> : Switching off dipole moment calculation


INFO   : the flag for use of LIBINT has been found!

================================================================================
                                       INPUT FILE
================================================================================
NAME = orca.inp
|  1> !XTB numfreq
|  2> 
|  3> *xyzfile 0 1 orcaSpecial.xyz
|  4> 
|  5>                          ****END OF INPUT****
================================================================================

                     *******************************
                     * Energy+Gradient Calculation *
                     *******************************

      -----------------------------------------------------------      
     |                   =====================                   |     
     |                           x T B                           |     
     |                   =====================                   |     
     |                         S. Grimme                         |     
     |          Mulliken Center for Theoretical Chemistry        |     
     |                    University of Bonn                     |     
     |                 Version 6.0.1 (SAW181210)                 |     
      -----------------------------------------------------------      

   This program is distributed in the hope that it will be useful,
   but WITHOUT ANY WARRANTY; without even the implied warranty of
   MERCHANTABILITY or FITNESS FOR A PARTICULAR PURPOSE.
   
   FOR NON-COMMERCIAL, ACADEMIA USE ONLY.
   
   Cite this work as:
   S. Grimme, C. Bannwarth, P. Shushkov, J. Comput. Theory Chem., 2017,
   13, 1989-2009.
   C. Bannwarth, S. Ehlert and S. Grimme., ChemRxiv, 2018, preprint.
   http://doi.org/10.26434/chemrxiv.7246238.v1
   
   for sTDA-xTB:
   S. Grimme and C. Bannwarth, J. Chem. Phys., 2016, 145, 054103.
   
   in the mass-spec context:
   V. Asgeirsson, C. Bauer and S. Grimme, Chem. Sci., 2017, 8, 4879.
   
   if GBSA is used:
   P. Shushkov, F. März and S. Grimme, unpublished.
   
   for ANC optimizer:
   S. Grimme, unpublished.
   Rational Function algorithm used in ANCopt:
   F. Eckert, P. Pulay, H.-J. Werner, J. Comput. Chem., 1997, 18, 1473.
   
   with help from (in alphabetical order)
   C. Bannwarth, F. Bohle, G. Brandenburg, E. Caldeweyher, M. Checinski,
   S. Dohm, S. Ehlert, S. Ehrlich, F. März, H. Neugebauer, J. Pisarek,
   P. Pracht, P. Shushkov, and S. Spicher.
   
 * started run on 2020/12/16 at 18:25:28.630     
========================================================================
 # omp threads = 1
========================================================================
calculation namespace      : orca
number of atoms            : 11
number of electrons        : 30
charge                     : 0
spin                       : .0
first test random number   : .5582

########################################################################
# WARNING! Please study the warnings concerning your input carefully
#  - XTBHOME is not set, using HOME instead
#  - XTBPATH is not set, using XTBHOME instead
########################################################################

           ------------------------------------------------- 
          |                 G F N 2 - x T B                 |
          | Geometry, Frequencies, Noncovalent interactions |
          |            JCTC 2018 parametrisation            |
           ------------------------------------------------- 
      method parameters     
 k(s)        :  1.8500
 k(p)        :  2.2300
 k(d)        :  2.2300
 k(f)        :  2.0000
 kEN (H0ij)  : -2.0000
 D4 a1       :  0.5200
 D4 a2       :  5.0000
 D4 s6       :  1.0000
 D4 s8       :  2.7000
 D4 s9       :  5.0000
 alphaj      :  2.0000


            Z     q(EN)     CN     RAES       Cart. coordinates
     1  C   4.0   -0.05    3.66    3.20     0.31549     2.41584     0.03077
     2  H   1.0    0.06    1.00    1.43     1.94574     3.17977    -0.93273
     3  H   1.0    0.10    1.35    1.51    -0.43547     0.76716    -1.84134
     4  C   4.0   -0.09    3.28    3.05     0.66886     0.71837     1.97649
     5  H   1.0    0.07    1.00    1.43    -0.75131     0.47880     3.42020
     6  H   1.0    0.06    1.00    1.43    -1.35214     3.59424     0.02849
     7  H   1.0    0.07    1.00    1.43     2.53827     0.06097     2.45787
     8  O   6.0   -0.22    1.81    1.81    -0.99193    -1.12215    -2.92378
     9  C   4.0    0.21    3.00    3.02    -0.76728    -2.91164    -1.35714
    10  H   1.0    0.05    1.11    1.45    -0.07928    -2.04394     0.62266
    11  O   6.0   -0.26    1.09    1.80    -1.09095    -5.13742    -1.48150

  Z AO/shell   Hii/eV     exponent
  1     Wed Apr 25 08:07:45 CEST 2018   EN: 2.200 GM2: 0.406  GM3: 0.0800  RAES: 1.40
     1s    -10.707211    1.230000
  6     Wed Apr 25 08:07:45 CEST 2018   EN: 2.550 GM2: 0.538  GM3: 0.1500  RAES: 3.00
     2s    -13.970922    2.096432
     2p    -10.063292    1.800000
  8     Wed Apr 25 08:07:45 CEST 2018   EN: 3.440 GM2: 0.452  GM3:-0.0517  RAES: 1.80
     2s    -20.229985    2.439742
     2p    -15.503117    2.137023
 no old-style atom pair restraining (fixing) potential
           ------------------------------------------------- 
          |        Self-Consistent Charge Iterations        |
           ------------------------------------------------- 

 Ncao       : 26
 Nao        : 26
 Nshell     : 16
 Nel        : 30
 T(el)      :   300.0
 intcut     :    25.0
 scfconv/Eh :  0.100E-05
   qconv/e  :  0.100E-03
 intneglect :  0.100E-07
 broydamp   :      0.250
 iter      E             dE          RMSdq      gap      omega  full diag
   1    -17.6515334 -0.176515E+02  0.517E+00    3.83       0.0  T
   2    -17.7118298 -0.602964E-01  0.318E+00    3.53       1.0  T
   3    -17.7155819 -0.375211E-02  0.151E+00    3.36       1.0  T
   4    -17.7166457 -0.106379E-02  0.421E-01    3.35       1.0  T
   5    -17.7167617 -0.115986E-03  0.164E-01    3.38       1.0  T
   6    -17.7167907 -0.290144E-04  0.591E-02    3.40       1.0  T
   7    -17.7167947 -0.398675E-05  0.210E-02    3.40       1.4  T
   8    -17.7167953 -0.646045E-06  0.105E-02    3.40       2.9  T
   9    -17.7167955 -0.207180E-06  0.484E-03    3.40       6.2  T
  10    -17.7167956 -0.833113E-07  0.272E-03    3.40      11.1  T
  11    -17.7167956 -0.428133E-07  0.939E-04    3.40      32.1  T
  12    -17.7167956 -0.703735E-08  0.172E-04    3.40     175.0  T
speedup  0.09
cpu  time for SCC    0.01 s
wall time for SCC    0.07 s

   *** convergence criteria satisfied after 12 iterations ***

          eigenvalues
 #    :           3          4          5          6          7          8          9         10
 occ. :        2.000      2.000      2.000      2.000      2.000      2.000      2.000      2.000
 eps  :       -18.004    -17.391    -16.855    -16.184    -15.918    -15.052    -14.868    -14.040
 #    :          11         12         13         14         15         16         17         18
 occ. :        2.000      2.000      2.000      2.000      2.000      0.000      0.000      0.000
 eps  :       -13.907    -13.010    -12.885    -12.631    -11.027     -7.627     -6.160      1.566
 #    :          19         20         21         22         23         24         25         26
 occ. :        0.000      0.000      0.000      0.000      0.000      0.000      0.000      0.000
 eps  :         3.017      3.485      4.163      4.597      9.506      9.974     10.833     19.158


   #   Z            q   n(s)   n(p)   n(d)      C6AA      α(0)
   1   6 C     -0.142  1.061  3.081  0.000    26.582     7.875
   2   1 H      0.065  0.935  0.000  0.000     2.140     2.287
   3   1 H      0.297  0.703  0.000  0.000     0.712     1.318
   4   6 C     -0.056  1.097  2.959  0.000    29.396     8.887
   5   1 H      0.066  0.934  0.000  0.000     2.125     2.279
   6   1 H      0.065  0.935  0.000  0.000     2.140     2.288
   7   1 H      0.066  0.934  0.000  0.000     2.125     2.280
   8   8 O     -0.368  1.734  4.634  0.000    20.421     6.091
   9   6 C      0.357  1.004  2.638  0.000    20.959     7.486
  10   1 H      0.011  0.989  0.000  0.000     2.874     2.651
  11   8 O     -0.363  1.730  4.632  0.000    20.953     6.137

 Mol. C6AA /au·bohr⁶  :       1058.038163
 Mol. C8AA /au·bohr⁸  :      22814.879984
 Mol. α(0) /au        :         49.579474

 
 Wiberg/Mayer (AO) data. WBOs > 0.1 written file <wbo>
 largest (>0.05) Wiberg bond orders for each atom
           total WBO             WBO to atom ...
     1  C   3.988    C    4 1.561    H    6 0.964    H    2 0.963    H    3 0.334    C    9 0.084
     2  H   0.996    C    1 0.963
     3  H   0.912    O    8 0.506    C    1 0.334
     4  C   3.980    C    1 1.561    H    7 0.973    H    5 0.973    H   10 0.239    O    8 0.139
     5  H   0.996    C    4 0.973
     6  H   0.996    C    1 0.964
     7  H   0.996    C    4 0.973
     8  O   2.264    C    9 1.362    H    3 0.506    O   11 0.209    C    4 0.139
     9  C   3.932    O   11 1.772    O    8 1.362    H   10 0.691    C    1 0.084
    10  H   1.000    C    9 0.691    C    4 0.239
    11  O   2.114    C    9 1.772    O    8 0.209
 MOs/occ written to file <molden.input>
 
molecular dipole:
                 x           y           z       tot (Debye)
 q only:        0.431       1.536       0.803
   full:        0.500       1.680       0.976       5.101
molecular quadrupole (traceless):
                xx          xy          yy          xz          yz          zz
 q only:        3.958      -2.706      -5.636      -1.494      -4.723       1.679
  q+dip:        6.031      -3.526      -7.983      -2.202      -5.456       1.952
   full:        6.158      -3.424      -7.867      -2.264      -5.090       1.709
speedup  0.14
cpu  time for grad    0.01 s
wall time for grad    0.07 s

SCC energy    :     -17.7167956
rep           :       0.1853446
ES            :       0.0488563
AES           :      -0.0001598
AXC           :       0.0037180
disp          :      -0.0050307
XB            :       0.0000000
fix           :       0.0000000
grad norm     :       0.0001130
total E       :     -17.5314475
atomizationE  :       2.7703270     1738.41
(atE without considering molecular charge,
 total energy contains solvation terms)
H-L gap (eV)  :          3.4001

------------------------------------------------------------------------
 * finished run on 2020/12/16 at 18:25:28.850     
------------------------------------------------------------------------
 total:
 * wall-time:     0 d,  0 h,  0 min,  0.218 sec
 *  cpu-time:     0 d,  0 h,  0 min,  0.024 sec
 * ratio c/w:     0.109 speedup
 SCF:
 * wall-time:     0 d,  0 h,  0 min,  0.072 sec
 *  cpu-time:     0 d,  0 h,  0 min,  0.011 sec
 * ratio c/w:     0.159 speedup


-------------------------   --------------------
FINAL SINGLE POINT ENERGY       -17.531447549400
-------------------------   --------------------


----------------------------------------------------------------------------
                           ORCA NUMERICAL FREQUENCIES
----------------------------------------------------------------------------

Number of atoms                ... 11
Central differences            ... used
Number of displacements        ... 66
Numerical increment            ... 5.000e-03 bohr
IR-spectrum generation         ... on
Raman-spectrum generation      ... off
Surface Crossing Hessian       ... off

The output will be reduced. Please look at the following files:
SCF program output             ... >orca.lastscf
Integral program output        ... >orca.lastint
Gradient program output        ... >orca.lastgrad
Dipole moment program output   ... >orca.lastmom
AutoCI program output          ... >orca.lastautoci


         <<< Energy and Gradient at the input geometry >>>

        <<< Energy and Gradient at displaced geometries >>>
             <<<Displacing   1/coordinate 1 (+)>>>
             <<<Displacing   1/coordinate 1 (-)>>>
             <<<Displacing   1/coordinate 2 (+)>>>
             <<<Displacing   1/coordinate 2 (-)>>>
             <<<Displacing   1/coordinate 3 (+)>>>
             <<<Displacing   1/coordinate 3 (-)>>>
             <<<Displacing   2/coordinate 1 (+)>>>
             <<<Displacing   2/coordinate 1 (-)>>>
             <<<Displacing   2/coordinate 2 (+)>>>
             <<<Displacing   2/coordinate 2 (-)>>>
             <<<Displacing   2/coordinate 3 (+)>>>
             <<<Displacing   2/coordinate 3 (-)>>>
             <<<Displacing   3/coordinate 1 (+)>>>
             <<<Displacing   3/coordinate 1 (-)>>>
             <<<Displacing   3/coordinate 2 (+)>>>
             <<<Displacing   3/coordinate 2 (-)>>>
             <<<Displacing   3/coordinate 3 (+)>>>
             <<<Displacing   3/coordinate 3 (-)>>>
             <<<Displacing   4/coordinate 1 (+)>>>
             <<<Displacing   4/coordinate 1 (-)>>>
             <<<Displacing   4/coordinate 2 (+)>>>
             <<<Displacing   4/coordinate 2 (-)>>>
             <<<Displacing   4/coordinate 3 (+)>>>
             <<<Displacing   4/coordinate 3 (-)>>>
             <<<Displacing   5/coordinate 1 (+)>>>
             <<<Displacing   5/coordinate 1 (-)>>>
             <<<Displacing   5/coordinate 2 (+)>>>
             <<<Displacing   5/coordinate 2 (-)>>>
             <<<Displacing   5/coordinate 3 (+)>>>
             <<<Displacing   5/coordinate 3 (-)>>>
             <<<Displacing   6/coordinate 1 (+)>>>
             <<<Displacing   6/coordinate 1 (-)>>>
             <<<Displacing   6/coordinate 2 (+)>>>
             <<<Displacing   6/coordinate 2 (-)>>>
             <<<Displacing   6/coordinate 3 (+)>>>
             <<<Displacing   6/coordinate 3 (-)>>>
             <<<Displacing   7/coordinate 1 (+)>>>
             <<<Displacing   7/coordinate 1 (-)>>>
             <<<Displacing   7/coordinate 2 (+)>>>
             <<<Displacing   7/coordinate 2 (-)>>>
             <<<Displacing   7/coordinate 3 (+)>>>
             <<<Displacing   7/coordinate 3 (-)>>>
             <<<Displacing   8/coordinate 1 (+)>>>
             <<<Displacing   8/coordinate 1 (-)>>>
             <<<Displacing   8/coordinate 2 (+)>>>
             <<<Displacing   8/coordinate 2 (-)>>>
             <<<Displacing   8/coordinate 3 (+)>>>
             <<<Displacing   8/coordinate 3 (-)>>>
             <<<Displacing   9/coordinate 1 (+)>>>
             <<<Displacing   9/coordinate 1 (-)>>>
             <<<Displacing   9/coordinate 2 (+)>>>
             <<<Displacing   9/coordinate 2 (-)>>>
             <<<Displacing   9/coordinate 3 (+)>>>
             <<<Displacing   9/coordinate 3 (-)>>>
             <<<Displacing  10/coordinate 1 (+)>>>
             <<<Displacing  10/coordinate 1 (-)>>>
             <<<Displacing  10/coordinate 2 (+)>>>
             <<<Displacing  10/coordinate 2 (-)>>>
             <<<Displacing  10/coordinate 3 (+)>>>
             <<<Displacing  10/coordinate 3 (-)>>>
             <<<Displacing  11/coordinate 1 (+)>>>
             <<<Displacing  11/coordinate 1 (-)>>>
             <<<Displacing  11/coordinate 2 (+)>>>
             <<<Displacing  11/coordinate 2 (-)>>>
             <<<Displacing  11/coordinate 3 (+)>>>
             <<<Displacing  11/coordinate 3 (-)>>>

-----------------------
VIBRATIONAL FREQUENCIES
-----------------------

Scaling factor for frequencies =  1.000000000 (already applied!)

   0:         0.00 cm**-1
   1:         0.00 cm**-1
   2:         0.00 cm**-1
   3:         0.00 cm**-1
   4:         0.00 cm**-1
   5:         0.00 cm**-1
   6:     -1340.65 cm**-1 ***imaginary mode***
   7:       145.03 cm**-1
   8:       310.06 cm**-1
   9:       312.81 cm**-1
  10:       448.37 cm**-1
  11:       465.17 cm**-1
  12:       586.21 cm**-1
  13:       726.34 cm**-1
  14:       840.27 cm**-1
  15:       868.84 cm**-1
  16:       924.25 cm**-1
  17:      1088.83 cm**-1
  18:      1105.63 cm**-1
  19:      1173.51 cm**-1
  20:      1210.66 cm**-1
  21:      1308.43 cm**-1
  22:      1374.43 cm**-1
  23:      1377.46 cm**-1
  24:      1420.65 cm**-1
  25:      1542.03 cm**-1
  26:      1560.96 cm**-1
  27:      1918.14 cm**-1
  28:      2023.85 cm**-1
  29:      3075.43 cm**-1
  30:      3085.58 cm**-1
  31:      3097.91 cm**-1
  32:      3119.64 cm**-1


------------
NORMAL MODES
------------

These modes are the cartesian displacements weighted by the diagonal matrix
M(i,i)=1/sqrt(m[i]) where m[i] is the mass of the displaced atom
Thus, these vectors are normalized but *not* orthogonal

                  0          1          2          3          4          5    
      0       0.000000   0.000000   0.000000   0.000000   0.000000   0.000000
      1       0.000000   0.000000   0.000000   0.000000   0.000000   0.000000
      2       0.000000   0.000000   0.000000   0.000000   0.000000   0.000000
      3       0.000000   0.000000   0.000000   0.000000   0.000000   0.000000
      4       0.000000   0.000000   0.000000   0.000000   0.000000   0.000000
      5       0.000000   0.000000   0.000000   0.000000   0.000000   0.000000
      6       0.000000   0.000000   0.000000   0.000000   0.000000   0.000000
      7       0.000000   0.000000   0.000000   0.000000   0.000000   0.000000
      8       0.000000   0.000000   0.000000   0.000000   0.000000   0.000000
      9       0.000000   0.000000   0.000000   0.000000   0.000000   0.000000
     10       0.000000   0.000000   0.000000   0.000000   0.000000   0.000000
     11       0.000000   0.000000   0.000000   0.000000   0.000000   0.000000
     12       0.000000   0.000000   0.000000   0.000000   0.000000   0.000000
     13       0.000000   0.000000   0.000000   0.000000   0.000000   0.000000
     14       0.000000   0.000000   0.000000   0.000000   0.000000   0.000000
     15       0.000000   0.000000   0.000000   0.000000   0.000000   0.000000
     16       0.000000   0.000000   0.000000   0.000000   0.000000   0.000000
     17       0.000000   0.000000   0.000000   0.000000   0.000000   0.000000
     18       0.000000   0.000000   0.000000   0.000000   0.000000   0.000000
     19       0.000000   0.000000   0.000000   0.000000   0.000000   0.000000
     20       0.000000   0.000000   0.000000   0.000000   0.000000   0.000000
     21       0.000000   0.000000   0.000000   0.000000   0.000000   0.000000
     22       0.000000   0.000000   0.000000   0.000000   0.000000   0.000000
     23       0.000000   0.000000   0.000000   0.000000   0.000000   0.000000
     24       0.000000   0.000000   0.000000   0.000000   0.000000   0.000000
     25       0.000000   0.000000   0.000000   0.000000   0.000000   0.000000
     26       0.000000   0.000000   0.000000   0.000000   0.000000   0.000000
     27       0.000000   0.000000   0.000000   0.000000   0.000000   0.000000
     28       0.000000   0.000000   0.000000   0.000000   0.000000   0.000000
     29       0.000000   0.000000   0.000000   0.000000   0.000000   0.000000
     30       0.000000   0.000000   0.000000   0.000000   0.000000   0.000000
     31       0.000000   0.000000   0.000000   0.000000   0.000000   0.000000
     32       0.000000   0.000000   0.000000   0.000000   0.000000   0.000000
                  6          7          8          9         10         11    
      0      -0.025443   0.215376   0.030331   0.003928   0.057046  -0.109851
      1      -0.012905  -0.027011  -0.008626  -0.107860   0.302754  -0.292960
      2      -0.082015  -0.062671  -0.005995   0.075065   0.064331  -0.250252
      3       0.049075   0.384158   0.068134  -0.011476   0.075151  -0.143383
      4       0.123427  -0.327719   0.131205  -0.174226   0.320079  -0.347293
      5       0.139993  -0.015350   0.171849   0.009667   0.121911  -0.358150
      6       0.231939  -0.069544   0.081937  -0.148537   0.019428   0.017859
      7       0.676204   0.008833  -0.017041  -0.148034   0.015094  -0.082172
      8       0.504083   0.020037  -0.041763  -0.407278   0.063324   0.093226
      9      -0.008902  -0.135645  -0.035425  -0.073468  -0.117808  -0.043050
     10      -0.083207   0.017186  -0.007864  -0.306838  -0.176639  -0.103456
     11       0.005903   0.039604   0.004760  -0.131368  -0.326370  -0.103017
     12       0.029201  -0.310934  -0.258874  -0.050259  -0.140117  -0.002840
     13       0.062940   0.220358  -0.247573  -0.328227  -0.261406   0.045260
     14       0.067006  -0.098114  -0.253543  -0.106400  -0.359753  -0.038062
     15       0.061829   0.396858  -0.067036  -0.009116   0.078233  -0.153114
     16       0.120929   0.229636  -0.145124  -0.137696   0.322028  -0.347778
     17       0.135178  -0.212077  -0.170463   0.055537   0.121581  -0.356514
     18       0.026080  -0.252364  -0.026028  -0.086624  -0.136727  -0.007159
     19       0.062684  -0.149271   0.255450  -0.388741  -0.261025   0.045736
     20       0.067372   0.262554   0.325290  -0.174315  -0.360244  -0.036473
     21      -0.000548  -0.203308  -0.086181  -0.038971   0.056362   0.091570
     22      -0.044571   0.026068   0.013306   0.061714   0.019814   0.126364
     23       0.017750   0.059032   0.016232  -0.200806   0.185687   0.261159
     24      -0.020107  -0.047597   0.196036   0.002185   0.017306   0.073578
     25       0.027162   0.006026  -0.017542   0.190394  -0.072332   0.100924
     26      -0.081116   0.013827  -0.056571   0.013943   0.085709   0.210001
     27       0.084521  -0.135312   0.645701  -0.087298   0.007077   0.059867
     28       0.287032   0.017371  -0.072769   0.266647  -0.070596  -0.067203
     29       0.164273   0.039292  -0.193733  -0.118170   0.043369   0.236628
     30       0.011018   0.178374  -0.085129   0.114316  -0.017630  -0.017606
     31       0.012336  -0.023166   0.018282   0.164030  -0.064234   0.142942
     32       0.032375  -0.051865   0.037395   0.279291  -0.030011  -0.124662
                 12         13         14         15         16         17    
      0      -0.041405  -0.017036   0.013796   0.038524   0.031171   0.017756
      1       0.004717  -0.061960  -0.001804  -0.004719   0.067537  -0.002458
      2       0.011802  -0.031355  -0.004110  -0.011114   0.077648  -0.005275
      3      -0.017481  -0.103791  -0.250675  -0.134579  -0.076377   0.045167
      4      -0.442053  -0.220431   0.102523   0.371873  -0.181752   0.059380
      5      -0.315114  -0.308675  -0.359112   0.010421  -0.292569   0.103290
      6      -0.337284   0.073369  -0.248762   0.359348  -0.013291  -0.453527
      7       0.042979  -0.123041   0.031908  -0.045927  -0.076644   0.057830
      8       0.098112   0.304404   0.072389  -0.104453  -0.012693   0.130254
      9      -0.044797  -0.001890   0.057906  -0.018316  -0.025146   0.032188
     10       0.005882   0.025881  -0.007332   0.002338  -0.102533  -0.004176
     11       0.013457  -0.017725  -0.016912   0.005376  -0.041600  -0.009580
     12       0.114930  -0.018107  -0.323162   0.029547   0.181429  -0.060509
     13       0.253752  -0.016653   0.182417   0.453305   0.491818  -0.211067
     14       0.209940  -0.048470  -0.345563   0.126680   0.266886  -0.129475
     15       0.253441  -0.128078  -0.037591  -0.200484  -0.133863  -0.030929
     16       0.411699  -0.215724  -0.065638  -0.329795  -0.174369  -0.060850
     17       0.246030  -0.299673   0.443856   0.086473  -0.274270  -0.104920
     18      -0.075938  -0.014979  -0.122218  -0.147813   0.106960   0.068354
     19      -0.257926  -0.017922  -0.126691  -0.439044   0.500995   0.212060
     20      -0.220555  -0.049816   0.475308  -0.092484   0.289368   0.128449
     21      -0.000110   0.088011   0.023858  -0.044241  -0.002938  -0.013421
     22      -0.000028   0.413070  -0.003063   0.005658  -0.016890   0.002035
     23      -0.000090   0.120130  -0.006878   0.012785  -0.002657   0.003853
     24       0.154069  -0.123040  -0.035575   0.096178  -0.007020   0.101719
     25      -0.019687  -0.136527   0.004613  -0.012413  -0.007848  -0.013207
     26      -0.044751  -0.363099   0.010363  -0.027961  -0.020475  -0.029363
     27       0.093388  -0.092495   0.078713  -0.277104   0.041309  -0.736384
     28      -0.012053  -0.193804  -0.010156   0.035629   0.142409   0.095089
     29      -0.026838  -0.232807  -0.022988   0.080699   0.078312   0.214035
     30      -0.052797   0.036466   0.005957  -0.019755  -0.003004  -0.026861
     31       0.007078  -0.233867  -0.000747   0.002548   0.004797   0.003256
     32       0.015254   0.229316  -0.001746   0.005751  -0.012502   0.007819
                 18         19         20         21         22         23    
      0      -0.021135   0.144313   0.023035   0.018698   0.017059   0.001117
      1      -0.072197  -0.018285  -0.003025  -0.086678  -0.016756   0.042059
      2      -0.040806  -0.042114  -0.006839   0.101075   0.065825  -0.014216
      3       0.145131  -0.143956  -0.152840   0.195839   0.097001   0.243418
      4       0.205363   0.357792  -0.099251  -0.267483  -0.304421  -0.410796
      5       0.468866  -0.179553  -0.388139   0.289771  -0.021581   0.066637
      6      -0.098638  -0.483863   0.541158  -0.007078   0.123878  -0.073826
      7      -0.039518   0.061658  -0.069691  -0.195515   0.351620   0.359170
      8      -0.330760   0.139735  -0.156245   0.065479   0.267388  -0.415937
      9      -0.018111  -0.125257  -0.044620  -0.019050  -0.000434  -0.001268
     10      -0.018076   0.015831   0.005648   0.092560   0.022113   0.038974
     11      -0.053952   0.036549   0.013040  -0.105154  -0.010968  -0.020948
     12       0.099419   0.176644  -0.003293  -0.194425  -0.329694   0.154344
     13       0.347429  -0.200092  -0.346957   0.293913   0.230931  -0.188346
     14       0.124627   0.273356  -0.013526  -0.271690  -0.327875   0.108877
     15       0.176736  -0.104042   0.104677  -0.068334  -0.159618  -0.256983
     16       0.201943  -0.326475   0.107275  -0.235583  -0.271374  -0.347316
     17       0.459918   0.252098   0.402671   0.366017   0.055012   0.214041
     18       0.064486   0.045008   0.084347   0.081946   0.148228  -0.111406
     19       0.349634   0.172245   0.336493   0.258389   0.171335  -0.154157
     20       0.134324  -0.337893  -0.009921  -0.353034  -0.467403   0.186524
     21       0.002990   0.019908  -0.021009   0.015476  -0.019060   0.009564
     22       0.071379  -0.002334   0.002471  -0.115099   0.059192  -0.004441
     23      -0.021339  -0.005882   0.006240   0.104199  -0.091750   0.034923
     24       0.009975  -0.024383   0.025929  -0.048470   0.037556  -0.002394
     25      -0.024240   0.003087  -0.003294   0.019154   0.008597  -0.003469
     26       0.045897   0.007312  -0.007808  -0.175098   0.125219  -0.006727
     27       0.004277   0.207587  -0.241778  -0.028617   0.017154   0.013257
     28       0.002205  -0.026709   0.031227  -0.246724   0.016367   0.271380
     29       0.006558  -0.060473   0.070281   0.011101   0.052863  -0.075203
     30      -0.005675   0.003158  -0.003187   0.022478  -0.015122  -0.005688
     31      -0.052640  -0.000561   0.000610   0.121064  -0.081919  -0.024173
     32       0.003615  -0.000928   0.000945   0.023534  -0.015617  -0.008824
                 24         25         26         27         28         29    
      0       0.003470  -0.007615  -0.028668   0.002618   0.003271   0.001160
      1      -0.028270   0.065239   0.137133  -0.017572  -0.006691  -0.052456
      2       0.024237  -0.054378  -0.157704   0.016651   0.014116   0.027394
      3      -0.180332   0.059200   0.277041  -0.025645  -0.014436   0.563309
      4       0.195274  -0.047519  -0.189636  -0.015573  -0.006487   0.242385
      5      -0.131997  -0.037921   0.145053  -0.044817   0.005949  -0.317117
      6      -0.130530  -0.042542  -0.045360   0.069036  -0.050964  -0.002556
      7       0.287268   0.311952  -0.582627   0.553722  -0.159998  -0.014006
      8      -0.575863  -0.284537   0.100121  -0.007285  -0.105100  -0.002595
      9       0.016826   0.009084   0.030026  -0.002170   0.000598  -0.003121
     10      -0.031691  -0.062689  -0.115205   0.013484   0.026359   0.005786
     11       0.071349   0.058326   0.152805  -0.013307  -0.009473  -0.013341
     12      -0.268846  -0.051086  -0.270173   0.010170  -0.022157  -0.110870
     13       0.133280   0.057571   0.117336  -0.015883  -0.085834  -0.015000
     14      -0.200612   0.011002  -0.110150  -0.012997  -0.042247   0.105677
     15       0.122125  -0.079120  -0.192964  -0.006109   0.013415  -0.570160
     16       0.157512  -0.030044  -0.130828  -0.017775  -0.009954   0.383249
     17      -0.220132   0.002938   0.281997  -0.050108  -0.002166   0.014040
     18       0.143415   0.060897   0.188787  -0.018803  -0.024089   0.142428
     19       0.081033   0.043885   0.058995  -0.011958  -0.085248  -0.047007
     20      -0.321251  -0.021603  -0.244586  -0.004361  -0.041468   0.031220
     21       0.015318  -0.001734   0.003907  -0.012693  -0.003675   0.000024
     22      -0.017528  -0.001106   0.007208   0.111114   0.018656  -0.000208
     23       0.060469  -0.005442   0.010305  -0.092928  -0.020885   0.000174
     24      -0.012088  -0.002335  -0.008949  -0.059760  -0.011478  -0.000304
     25      -0.006423   0.023976  -0.035142  -0.698209  -0.020402  -0.000149
     26      -0.038790  -0.018699  -0.015164   0.104413  -0.030397  -0.000979
     27       0.016350  -0.027974   0.017540  -0.020968   0.288489   0.003190
     28       0.331207  -0.837071   0.304229  -0.015631   0.203398   0.006805
     29      -0.090609   0.275063  -0.074313  -0.064600   0.901642   0.007969
     30      -0.002716   0.007464   0.003375   0.056737  -0.002601   0.000080
     31      -0.007332   0.012771   0.029333   0.386078  -0.009024   0.000300
     32      -0.006052   0.019985  -0.001424   0.023634  -0.004930   0.000141
                  30         31         32    
      0       0.000001   0.073422   0.053404
      1       0.010020  -0.009356  -0.006768
      2      -0.004665  -0.021332  -0.015538
      3      -0.127229  -0.454165  -0.315068
      4      -0.054911  -0.230083  -0.155386
      5       0.071709   0.273672   0.186573
      6       0.002309   0.010119   0.009114
      7       0.009795  -0.001271  -0.001133
      8       0.003619  -0.002938  -0.002643
      9      -0.012133  -0.050025   0.076717
     10       0.025838   0.006341  -0.009746
     11      -0.052633   0.014663  -0.022432
     12      -0.495280   0.270928  -0.396855
     13      -0.070287   0.051731  -0.072999
     14       0.472675  -0.289275   0.416350
     15       0.128219  -0.466320  -0.321924
     16      -0.086282   0.347350   0.236087
     17      -0.003084  -0.006174  -0.001248
     18       0.638940   0.361943  -0.528124
     19      -0.214384  -0.131963   0.190530
     20       0.141080   0.103808  -0.145904
     21       0.000075  -0.000104  -0.000083
     22      -0.000211   0.000013   0.000010
     23       0.000352   0.000029   0.000025
     24      -0.000148   0.000096   0.000005
     25      -0.000197  -0.000014  -0.000001
     26      -0.000420  -0.000028  -0.000001
     27      -0.003410  -0.000810   0.003747
     28      -0.010144   0.000121  -0.000490
     29      -0.007237   0.000257  -0.001110
     30       0.000100   0.000003  -0.000008
     31       0.000292   0.000000   0.000001
     32       0.000215  -0.000001   0.000003


-----------
IR SPECTRUM  
-----------

 Mode    freq (cm**-1)   T**2         TX         TY         TZ
-------------------------------------------------------------------
   7:       145.03    0.000000  (  0.000000   0.000000   0.000000)
   8:       310.06    0.000000  (  0.000000   0.000000   0.000000)
   9:       312.81    0.000000  (  0.000000   0.000000   0.000000)
  10:       448.37    0.000000  (  0.000000   0.000000   0.000000)
  11:       465.17    0.000000  (  0.000000   0.000000   0.000000)
  12:       586.21    0.000000  (  0.000000   0.000000   0.000000)
  13:       726.34    0.000000  (  0.000000   0.000000   0.000000)
  14:       840.27    0.000000  (  0.000000   0.000000   0.000000)
  15:       868.84    0.000000  (  0.000000   0.000000   0.000000)
  16:       924.25    0.000000  (  0.000000   0.000000   0.000000)
  17:      1088.83    0.000000  (  0.000000   0.000000   0.000000)
  18:      1105.63    0.000000  (  0.000000   0.000000   0.000000)
  19:      1173.51    0.000000  (  0.000000   0.000000   0.000000)
  20:      1210.66    0.000000  (  0.000000   0.000000   0.000000)
  21:      1308.43    0.000000  (  0.000000   0.000000   0.000000)
  22:      1374.43    0.000000  (  0.000000   0.000000   0.000000)
  23:      1377.46    0.000000  (  0.000000   0.000000   0.000000)
  24:      1420.65    0.000000  (  0.000000   0.000000   0.000000)
  25:      1542.03    0.000000  (  0.000000   0.000000   0.000000)
  26:      1560.96    0.000000  (  0.000000   0.000000   0.000000)
  27:      1918.14    0.000000  (  0.000000   0.000000   0.000000)
  28:      2023.85    0.000000  (  0.000000   0.000000   0.000000)
  29:      3075.43    0.000000  (  0.000000   0.000000   0.000000)
  30:      3085.58    0.000000  (  0.000000   0.000000   0.000000)
  31:      3097.91    0.000000  (  0.000000   0.000000   0.000000)
  32:      3119.64    0.000000  (  0.000000   0.000000   0.000000)

The first frequency considered to be a vibration is 7
The total number of vibrations considered is 26


--------------------------
THERMOCHEMISTRY AT 298.15K
--------------------------

Temperature         ... 298.15 K
Pressure            ... 1.00 atm
Total Mass          ... 74.08 AMU

Throughout the following assumptions are being made:
  (1) The electronic state is orbitally nondegenerate
  (2) There are no thermally accessible electronically excited states
  (3) Hindered rotations indicated by low frequency modes are not
      treated as such but are treated as vibrations and this may
      cause some error
  (4) All equations used are the standard statistical mechanics
      equations for an ideal gas
  (5) All vibrations are strictly harmonic

freq.     145.03  E(vib)   ...       0.41 
freq.     310.06  E(vib)   ...       0.26 
freq.     312.81  E(vib)   ...       0.25 
freq.     448.37  E(vib)   ...       0.17 
freq.     465.17  E(vib)   ...       0.16 
freq.     586.21  E(vib)   ...       0.11 
freq.     726.34  E(vib)   ...       0.06 
freq.     840.27  E(vib)   ...       0.04 
freq.     868.84  E(vib)   ...       0.04 
freq.     924.25  E(vib)   ...       0.03 
freq.    1088.83  E(vib)   ...       0.02 
freq.    1105.63  E(vib)   ...       0.02 
freq.    1173.51  E(vib)   ...       0.01 
freq.    1210.66  E(vib)   ...       0.01 
freq.    1308.43  E(vib)   ...       0.01 
freq.    1374.43  E(vib)   ...       0.01 
freq.    1377.46  E(vib)   ...       0.01 
freq.    1420.65  E(vib)   ...       0.00 
freq.    1542.03  E(vib)   ...       0.00 
freq.    1560.96  E(vib)   ...       0.00 
freq.    1918.14  E(vib)   ...       0.00 
freq.    2023.85  E(vib)   ...       0.00 
freq.    3075.43  E(vib)   ...       0.00 
freq.    3085.58  E(vib)   ...       0.00 
freq.    3097.91  E(vib)   ...       0.00 
freq.    3119.64  E(vib)   ...       0.00 

------------
INNER ENERGY
------------

The inner energy is: U= E(el) + E(ZPE) + E(vib) + E(rot) + E(trans)
    E(el)   - is the total energy from the electronic structure calculation
              = E(kin-el) + E(nuc-el) + E(el-el) + E(nuc-nuc)
    E(ZPE)  - the the zero temperature vibrational energy from the frequency calculation
    E(vib)  - the the finite temperature correction to E(ZPE) due to population
              of excited vibrational states
    E(rot)  - is the rotational thermal energy
    E(trans)- is the translational thermal energy

Summary of contributions to the inner energy U:
Electronic energy                ...    -17.53144755 Eh
Zero point energy                ...      0.07998763 Eh      50.19 kcal/mol
Thermal vibrational correction   ...      0.00255688 Eh       1.60 kcal/mol
Thermal rotational correction    ...      0.00141627 Eh       0.89 kcal/mol
Thermal translational correction ...      0.00141627 Eh       0.89 kcal/mol
-----------------------------------------------------------------------
Total thermal energy                    -17.44607050 Eh


Summary of corrections to the electronic energy:
(perhaps to be used in another calculation)
Total thermal correction                  0.00538943 Eh       3.38 kcal/mol
Non-thermal (ZPE) correction              0.07998763 Eh      50.19 kcal/mol
-----------------------------------------------------------------------
Total correction                          0.08537705 Eh      53.57 kcal/mol


--------
ENTHALPY
--------

The enthalpy is H = U + kB*T
                kB is Boltzmann's constant
Total free energy                 ...    -17.44607050 Eh 
Thermal Enthalpy correction       ...      0.00094421 Eh       0.59 kcal/mol
-----------------------------------------------------------------------
Total Enthalpy                    ...    -17.44512629 Eh


Note: Only C1 symmetry has been detected, increase convergence thresholds 
      if your molecule has a higher symmetry. Symmetry factor of 1.0 is   
      used for the rotational entropy correction. 
 

Note: Rotational entropy computed according to Herzberg 
Infrared and Raman Spectra, Chapter V,1, Van Nostrand Reinhold, 1945 
Point Group:  C1, Symmetry Number:   1  
Rotational constants in cm-1:     0.362375     0.092790     0.076124 

Vibrational entropy computed according to the QRRHO of S. Grimme
Chem.Eur.J. 2012 18 9955


-------
ENTROPY
-------

The entropy contributions are T*S = T*(S(el)+S(vib)+S(rot)+S(trans))
     S(el)   - electronic entropy
     S(vib)  - vibrational entropy
     S(rot)  - rotational entropy
     S(trans)- translational entropy
The entropies will be listed as mutliplied by the temperature to get
units of energy

Electronic entropy                ...      0.00000000 Eh      0.00 kcal/mol
Vibrational entropy               ...      0.00403486 Eh      2.53 kcal/mol
Rotational entropy                ...      0.01232819 Eh      7.74 kcal/mol
Translational entropy             ...      0.01844631 Eh     11.58 kcal/mol
-----------------------------------------------------------------------
Final entropy term                ...      0.03480936 Eh     21.84 kcal/mol

In case the symmetry of your molecule has not been determined correctly
or in case you have a reason to use a different symmetry number we print 
out the resulting rotational entropy values for sn=1,12 :
 --------------------------------------------------------
|  sn= 1 | S(rot)=       0.01232819 Eh      7.74 kcal/mol|
|  sn= 2 | S(rot)=       0.01167374 Eh      7.33 kcal/mol|
|  sn= 3 | S(rot)=       0.01129090 Eh      7.09 kcal/mol|
|  sn= 4 | S(rot)=       0.01101928 Eh      6.91 kcal/mol|
|  sn= 5 | S(rot)=       0.01080859 Eh      6.78 kcal/mol|
|  sn= 6 | S(rot)=       0.01063645 Eh      6.67 kcal/mol|
|  sn= 7 | S(rot)=       0.01049090 Eh      6.58 kcal/mol|
|  sn= 8 | S(rot)=       0.01036482 Eh      6.50 kcal/mol|
|  sn= 9 | S(rot)=       0.01025362 Eh      6.43 kcal/mol|
|  sn=10 | S(rot)=       0.01015414 Eh      6.37 kcal/mol|
|  sn=11 | S(rot)=       0.01006415 Eh      6.32 kcal/mol|
|  sn=12 | S(rot)=       0.00998199 Eh      6.26 kcal/mol|
 --------------------------------------------------------


-------------------
GIBBS FREE ENERGY
-------------------

The Gibbs free energy is G = H - T*S

Total enthalpy                    ...    -17.44512629 Eh 
Total entropy correction          ...     -0.03480936 Eh    -21.84 kcal/mol
-----------------------------------------------------------------------
Final Gibbs free energy         ...    -17.47993565 Eh

For completeness - the Gibbs free energy minus the electronic energy
G-E(el)                           ...      0.05151190 Eh     32.32 kcal/mol


Total Time for Numerical Frequencies  :        85.839 sec
Time for Reference State(s)           :         0.042 sec
Time for Displacements                :        85.217 sec

Timings for individual modules:

Sum of individual times         ...        0.338 sec (=   0.006 min)
XTB module                      ...        0.338 sec (=   0.006 min) 100.0 %
                             ****ORCA TERMINATED NORMALLY****
TOTAL RUN TIME: 0 days 0 hours 1 minutes 27 seconds 655 msec
